<?xml version="1.0" encoding="UTF-8"?>

<!-- generated on 2020. dec. 8., kedd, 18:08:42 CET by Eclipse SUMO GUI Version 1.6.0
<configuration xmlns:xsi="http://www.w3.org/2001/XMLSchema-instance" xsi:noNamespaceSchemaLocation="http://sumo.dlr.de/xsd/sumoConfiguration.xsd">

    <input>
        <net-file value="/home/akos/workspace/flow/flow/core/kernel/network/debug/cfg/singleagent_autobahn_20201208-1808391607447319.7886279.net.xml"/>
        <route-files value="/home/akos/workspace/flow/flow/core/kernel/network/debug/cfg/singleagent_autobahn_20201208-1808391607447319.7886279.rou.xml"/>
        <additional-files value="/home/akos/workspace/flow/flow/core/kernel/network/debug/cfg/singleagent_autobahn_20201208-1808391607447319.7886279.add.xml"/>
    </input>

    <output>
        <emission-output value="emission_results/singleagent_autobahn_20201208-1808391607447319.7886279-emission.xml"/>
    </output>

    <time>
        <begin value="0"/>
        <step-length value="1"/>
    </time>

    <processing>
        <collision.check-junctions value="true"/>
        <time-to-teleport value="-1"/>
        <lanechange.overtake-right value="true"/>
    </processing>

    <report>
        <no-step-log value="true"/>
    </report>

    <traci_server>
        <remote-port value="37307"/>
        <num-clients value="1"/>
    </traci_server>

    <random_number>
        <seed value="15235"/>
    </random_number>

    <gui_only>
        <gui-settings-file value="/home/akos/workspace/flow/flow/core/kernel/network/debug/cfg/singleagent_autobahn_20201208-1808391607447319.7886279.gui.cfg"/>
        <tracker-interval value="1"/>
    </gui_only>

</configuration>
-->

<emission-export xmlns:xsi="http://www.w3.org/2001/XMLSchema-instance" xsi:noNamespaceSchemaLocation="http://sumo.dlr.de/xsd/emission_file.xsd">
    <timestep time="0.00"/>
    <timestep time="1.00">
        <vehicle id="flow_00.0" eclass="HBEFA3/PC_G_EU4" CO2="2150.88" CO="71.14" HC="0.37" NOx="0.83" PMx="0.03" fuel="0.92" electricity="0.00" noise="58.62" route="routeedge0_0" type="traffic" waiting="0.00" lane="edge0_0" pos="5.10" speed="5.45" angle="90.00" x="304.71" y="110.20"/>
        <vehicle id="rl_0" eclass="HBEFA3/PC_G_EU4" CO2="2624.72" CO="164.78" HC="0.81" NOx="1.20" PMx="0.07" fuel="1.13" electricity="0.00" noise="55.94" route="routeedge4_0" type="rl" waiting="0.00" lane="edge4_0" pos="121.87" speed="0.00" angle="90.00" x="121.87" y="-1.60"/>
    </timestep>
    <timestep time="2.00">
        <vehicle id="flow_00.0" eclass="HBEFA3/PC_G_EU4" CO2="7526.45" CO="150.58" HC="0.87" NOx="3.30" PMx="0.16" fuel="3.24" electricity="0.00" noise="70.70" route="routeedge0_0" type="traffic" waiting="0.00" lane="edge0_0" pos="13.14" speed="8.04" angle="90.00" x="312.15" y="110.20"/>
        <vehicle id="flow_10.0" eclass="HBEFA3/PC_G_EU4" CO2="2354.56" CO="118.52" HC="0.59" NOx="1.01" PMx="0.05" fuel="1.01" electricity="0.00" noise="56.96" route="routeedge0_0" type="truck" waiting="0.00" lane="edge0_0" pos="5.10" speed="2.44" angle="90.00" x="304.71" y="110.20"/>
        <vehicle id="rl_0" eclass="HBEFA3/PC_G_EU4" CO2="5417.72" CO="165.89" HC="0.88" NOx="2.43" PMx="0.12" fuel="2.33" electricity="0.00" noise="72.58" route="routeedge4_0" type="rl" waiting="0.00" lane="edge4_0" pos="125.35" speed="3.48" angle="90.00" x="125.35" y="-1.60"/>
    </timestep>
    <timestep time="3.00">
        <vehicle id="flow_00.0" eclass="HBEFA3/PC_G_EU4" CO2="9268.31" CO="160.97" HC="0.96" NOx="4.06" PMx="0.20" fuel="3.98" electricity="0.00" noise="71.83" route="routeedge0_0" type="traffic" waiting="0.00" lane="edge0_0" pos="23.76" speed="10.62" angle="90.00" x="321.96" y="110.20"/>
        <vehicle id="flow_00.1" eclass="HBEFA3/PC_G_EU4" CO2="2124.34" CO="61.83" HC="0.33" NOx="0.80" PMx="0.02" fuel="0.91" electricity="0.00" noise="59.06" route="routeedge0_0" type="traffic" waiting="0.00" lane="edge0_1" pos="5.10" speed="6.13" angle="90.00" x="304.71" y="113.40"/>
        <vehicle id="flow_10.0" eclass="HBEFA3/PC_G_EU4" CO2="2420.96" CO="118.09" HC="0.59" NOx="1.04" PMx="0.05" fuel="1.04" electricity="0.00" noise="57.51" route="routeedge0_0" type="truck" waiting="0.00" lane="edge0_0" pos="7.66" speed="2.56" angle="90.00" x="307.08" y="110.20"/>
        <vehicle id="rl_0" eclass="HBEFA3/PC_G_EU4" CO2="6246.16" CO="147.35" HC="0.82" NOx="2.75" PMx="0.13" fuel="2.68" electricity="0.00" noise="69.85" route="routeedge4_0" type="rl" waiting="0.00" lane="edge4_0" pos="131.42" speed="6.08" angle="90.00" x="131.42" y="-1.60"/>
    </timestep>
    <timestep time="4.00">
        <vehicle id="flow_00.0" eclass="HBEFA3/PC_G_EU4" CO2="10993.68" CO="176.82" HC="1.07" NOx="4.81" PMx="0.24" fuel="4.73" electricity="0.00" noise="72.89" route="routeedge0_0" type="traffic" waiting="0.00" lane="edge0_0" pos="36.92" speed="13.16" angle="90.00" x="334.13" y="110.20"/>
        <vehicle id="flow_00.1" eclass="HBEFA3/PC_G_EU4" CO2="7981.00" CO="152.68" HC="0.89" NOx="3.50" PMx="0.17" fuel="3.43" electricity="0.00" noise="71.00" route="routeedge0_0" type="traffic" waiting="0.00" lane="edge0_1" pos="13.82" speed="8.72" angle="90.00" x="312.78" y="113.40"/>
        <vehicle id="flow_10.0" eclass="HBEFA3/PC_G_EU4" CO2="3744.94" CO="123.71" HC="0.65" NOx="1.62" PMx="0.08" fuel="1.61" electricity="0.00" noise="63.94" route="routeedge0_0" type="truck" waiting="0.00" lane="edge0_0" pos="11.67" speed="4.01" angle="90.00" x="310.78" y="110.20"/>
        <vehicle id="rl_0" eclass="HBEFA3/PC_G_EU4" CO2="3184.65" CO="76.71" HC="0.42" NOx="1.29" PMx="0.05" fuel="1.37" electricity="0.00" noise="61.78" route="routeedge4_0" type="rl" waiting="0.00" lane="edge4_0" pos="138.12" speed="6.69" angle="90.00" x="138.12" y="-1.60"/>
    </timestep>
    <timestep time="5.00">
        <vehicle id="flow_00.0" eclass="HBEFA3/PC_G_EU4" CO2="12585.24" CO="195.64" HC="1.20" NOx="5.50" PMx="0.28" fuel="5.41" electricity="0.00" noise="73.82" route="routeedge0_0" type="traffic" waiting="0.00" lane="edge0_0" pos="52.55" speed="15.63" angle="90.00" x="348.58" y="110.20"/>
        <vehicle id="flow_00.1" eclass="HBEFA3/PC_G_EU4" CO2="9727.39" CO="164.69" HC="0.98" NOx="4.26" PMx="0.21" fuel="4.18" electricity="0.00" noise="72.12" route="routeedge0_0" type="traffic" waiting="0.00" lane="edge0_1" pos="25.11" speed="11.29" angle="90.00" x="323.21" y="113.40"/>
        <vehicle id="flow_00.2" eclass="HBEFA3/PC_G_EU4" CO2="2121.75" CO="60.79" HC="0.32" NOx="0.80" PMx="0.02" fuel="0.91" electricity="0.00" noise="59.11" route="routeedge0_0" type="traffic" waiting="0.00" lane="edge0_1" pos="5.10" speed="6.21" angle="90.00" x="304.71" y="113.40"/>
        <vehicle id="flow_10.0" eclass="HBEFA3/PC_G_EU4" CO2="4267.23" CO="114.17" HC="0.62" NOx="1.83" PMx="0.08" fuel="1.83" electricity="0.00" noise="64.75" route="routeedge0_0" type="truck" waiting="0.00" lane="edge0_0" pos="17.16" speed="5.49" angle="90.00" x="315.86" y="110.20"/>
        <vehicle id="rl_0" eclass="HBEFA3/PC_G_EU4" CO2="2185.47" CO="55.60" HC="0.30" NOx="0.81" PMx="0.02" fuel="0.94" electricity="0.00" noise="59.63" route="routeedge4_0" type="rl" waiting="0.00" lane="edge4_0" pos="144.85" speed="6.74" angle="90.00" x="144.85" y="-1.60"/>
    </timestep>
    <timestep time="6.00">
        <vehicle id="flow_00.0" eclass="HBEFA3/PC_G_EU4" CO2="13889.66" CO="213.94" HC="1.31" NOx="6.05" PMx="0.31" fuel="5.97" electricity="0.00" noise="74.53" route="routeedge0_0" type="traffic" waiting="0.00" lane="edge0_0" pos="70.54" speed="17.99" angle="90.00" x="365.21" y="110.20"/>
        <vehicle id="flow_00.1" eclass="HBEFA3/PC_G_EU4" CO2="11430.72" CO="181.61" HC="1.10" NOx="5.00" PMx="0.25" fuel="4.91" electricity="0.00" noise="73.15" route="routeedge0_0" type="traffic" waiting="0.00" lane="edge0_1" pos="38.93" speed="13.82" angle="90.00" x="335.99" y="113.40"/>
        <vehicle id="flow_00.2" eclass="HBEFA3/PC_G_EU4" CO2="7073.62" CO="136.67" HC="0.79" NOx="3.08" PMx="0.15" fuel="3.04" electricity="0.00" noise="69.46" route="routeedge0_0" type="traffic" waiting="0.00" lane="edge0_1" pos="13.57" speed="8.47" angle="90.00" x="312.54" y="113.40"/>
        <vehicle id="flow_10.0" eclass="HBEFA3/PC_G_EU4" CO2="4790.69" CO="106.48" HC="0.60" NOx="2.04" PMx="0.09" fuel="2.06" electricity="0.00" noise="65.46" route="routeedge0_0" type="truck" waiting="0.00" lane="edge0_0" pos="24.12" speed="6.97" angle="90.00" x="322.30" y="110.20"/>
        <vehicle id="rl_0" eclass="HBEFA3/PC_G_EU4" CO2="2111.08" CO="54.04" HC="0.29" NOx="0.78" PMx="0.02" fuel="0.91" electricity="0.00" noise="59.47" route="routeedge4_0" type="rl" waiting="0.00" lane="edge4_0" pos="151.60" speed="6.74" angle="90.00" x="151.60" y="-1.60"/>
    </timestep>
    <timestep time="7.00">
        <vehicle id="flow_00.0" eclass="HBEFA3/PC_G_EU4" CO2="14747.39" CO="227.81" HC="1.40" NOx="6.41" PMx="0.34" fuel="6.34" electricity="0.00" noise="74.99" route="routeedge0_0" type="traffic" waiting="0.00" lane="edge0_0" pos="90.73" speed="20.18" angle="90.00" x="383.86" y="110.20"/>
        <vehicle id="flow_00.1" eclass="HBEFA3/PC_G_EU4" CO2="12962.64" CO="200.66" HC="1.23" NOx="5.66" PMx="0.29" fuel="5.57" electricity="0.00" noise="74.03" route="routeedge0_0" type="traffic" waiting="0.00" lane="edge0_1" pos="55.20" speed="16.26" angle="90.00" x="351.02" y="113.40"/>
        <vehicle id="flow_00.2" eclass="HBEFA3/PC_G_EU4" CO2="8771.09" CO="149.00" HC="0.89" NOx="3.82" PMx="0.18" fuel="3.77" electricity="0.00" noise="70.97" route="routeedge0_0" type="traffic" waiting="0.00" lane="edge0_1" pos="24.39" speed="10.82" angle="90.00" x="322.54" y="113.40"/>
        <vehicle id="flow_00.3" eclass="HBEFA3/PC_G_EU4" CO2="2410.81" CO="128.99" HC="0.64" NOx="1.05" PMx="0.05" fuel="1.04" electricity="0.00" noise="56.69" route="routeedge0_0" type="traffic" waiting="0.00" lane="edge0_0" pos="5.10" speed="1.86" angle="90.00" x="304.71" y="110.20"/>
        <vehicle id="flow_10.0" eclass="HBEFA3/PC_G_EU4" CO2="5308.12" CO="100.67" HC="0.58" NOx="2.24" PMx="0.10" fuel="2.28" electricity="0.00" noise="66.13" route="routeedge0_0" type="truck" waiting="0.00" lane="edge0_0" pos="32.56" speed="8.43" angle="90.00" x="330.09" y="110.20"/>
        <vehicle id="rl_0" eclass="HBEFA3/PC_G_EU4" CO2="2107.01" CO="53.95" HC="0.29" NOx="0.78" PMx="0.02" fuel="0.91" electricity="0.00" noise="59.46" route="routeedge4_0" type="rl" waiting="0.00" lane="edge4_0" pos="158.34" speed="6.74" angle="90.00" x="158.34" y="-1.60"/>
    </timestep>
    <timestep time="8.00">
        <vehicle id="flow_00.0" eclass="HBEFA3/PC_G_EU4" CO2="15011.25" CO="233.28" HC="1.43" NOx="6.48" PMx="0.34" fuel="6.45" electricity="0.00" noise="75.17" route="routeedge0_0" type="traffic" waiting="0.00" lane="edge0_0" pos="112.89" speed="22.16" angle="90.00" x="404.35" y="110.20"/>
        <vehicle id="flow_00.1" eclass="HBEFA3/PC_G_EU4" CO2="14164.33" CO="218.17" HC="1.34" NOx="6.17" PMx="0.32" fuel="6.09" electricity="0.00" noise="74.68" route="routeedge0_0" type="traffic" waiting="0.00" lane="edge0_1" pos="73.78" speed="18.58" angle="90.00" x="368.20" y="113.40"/>
        <vehicle id="flow_00.2" eclass="HBEFA3/PC_G_EU4" CO2="10404.98" CO="164.55" HC="1.00" NOx="4.53" PMx="0.22" fuel="4.47" electricity="0.00" noise="72.18" route="routeedge0_0" type="traffic" waiting="0.00" lane="edge0_1" pos="37.57" speed="13.18" angle="90.00" x="334.73" y="113.40"/>
        <vehicle id="flow_00.3" eclass="HBEFA3/PC_G_EU4" CO2="5134.72" CO="146.67" HC="0.79" NOx="2.27" PMx="0.11" fuel="2.21" electricity="0.00" noise="68.91" route="routeedge0_0" type="traffic" waiting="0.00" lane="edge0_0" pos="9.51" speed="4.41" angle="90.00" x="308.79" y="110.20"/>
        <vehicle id="flow_10.0" eclass="HBEFA3/PC_G_EU4" CO2="5787.93" CO="96.20" HC="0.57" NOx="2.43" PMx="0.11" fuel="2.49" electricity="0.00" noise="66.74" route="routeedge0_0" type="truck" waiting="0.00" lane="edge0_0" pos="42.42" speed="9.86" angle="90.00" x="339.21" y="110.20"/>
        <vehicle id="rl_0" eclass="HBEFA3/PC_G_EU4" CO2="2106.80" CO="53.95" HC="0.29" NOx="0.78" PMx="0.02" fuel="0.91" electricity="0.00" noise="59.46" route="routeedge4_0" type="rl" waiting="0.00" lane="edge4_0" pos="165.08" speed="6.74" angle="90.00" x="165.08" y="-1.60"/>
    </timestep>
    <timestep time="9.00">
        <vehicle id="flow_00.0" eclass="HBEFA3/PC_G_EU4" CO2="11757.58" CO="168.06" HC="1.06" NOx="4.92" PMx="0.26" fuel="5.05" electricity="0.00" noise="73.53" route="routeedge0_0" type="traffic" waiting="0.00" lane="edge0_0" pos="136.33" speed="23.45" angle="90.00" x="426.02" y="110.20"/>
        <vehicle id="flow_00.1" eclass="HBEFA3/PC_G_EU4" CO2="14882.30" CO="230.27" HC="1.41" NOx="6.46" PMx="0.34" fuel="6.40" electricity="0.00" noise="75.07" route="routeedge0_0" type="traffic" waiting="0.00" lane="edge0_1" pos="94.51" speed="20.73" angle="90.00" x="387.36" y="113.40"/>
        <vehicle id="flow_00.2" eclass="HBEFA3/PC_G_EU4" CO2="11879.02" CO="181.70" HC="1.12" NOx="5.17" PMx="0.26" fuel="5.11" electricity="0.00" noise="73.15" route="routeedge0_0" type="traffic" waiting="0.00" lane="edge0_1" pos="53.07" speed="15.50" angle="90.00" x="349.06" y="113.40"/>
        <vehicle id="flow_00.3" eclass="HBEFA3/PC_G_EU4" CO2="6677.58" CO="145.70" HC="0.82" NOx="2.93" PMx="0.14" fuel="2.87" electricity="0.00" noise="69.92" route="routeedge0_0" type="traffic" waiting="0.00" lane="edge0_0" pos="16.44" speed="6.94" angle="90.00" x="315.20" y="110.20"/>
        <vehicle id="flow_00.4" eclass="HBEFA3/PC_G_EU4" CO2="3527.95" CO="0.00" HC="0.07" NOx="1.07" PMx="0.04" fuel="1.52" electricity="0.00" noise="69.61" route="routeedge0_0" type="traffic" waiting="0.00" lane="edge0_1" pos="5.10" speed="21.81" angle="90.00" x="304.71" y="113.40"/>
        <vehicle id="flow_10.0" eclass="HBEFA3/PC_G_EU4" CO2="6184.93" CO="92.20" HC="0.57" NOx="2.59" PMx="0.12" fuel="2.66" electricity="0.00" noise="67.25" route="routeedge0_0" type="truck" waiting="0.00" lane="edge0_0" pos="53.66" speed="11.24" angle="90.00" x="349.60" y="110.20"/>
        <vehicle id="rl_0" eclass="HBEFA3/PC_G_EU4" CO2="2106.79" CO="53.95" HC="0.29" NOx="0.78" PMx="0.02" fuel="0.91" electricity="0.00" noise="59.46" route="routeedge4_0" type="rl" waiting="0.00" lane="edge4_0" pos="171.82" speed="6.74" angle="90.00" x="171.82" y="-1.60"/>
    </timestep>
    <timestep time="10.00">
        <vehicle id="flow_00.0" eclass="HBEFA3/PC_G_EU4" CO2="8652.56" CO="105.75" HC="0.70" NOx="3.44" PMx="0.18" fuel="3.72" electricity="0.00" noise="72.39" route="routeedge0_0" type="traffic" waiting="0.00" lane="edge0_0" pos="160.50" speed="24.17" angle="90.00" x="448.36" y="110.20"/>
        <vehicle id="flow_00.1" eclass="HBEFA3/PC_G_EU4" CO2="14284.24" CO="218.68" HC="1.35" NOx="6.13" PMx="0.33" fuel="6.14" electricity="0.00" noise="74.75" route="routeedge0_0" type="traffic" waiting="0.00" lane="edge0_1" pos="117.04" speed="22.53" angle="90.00" x="408.18" y="113.40"/>
        <vehicle id="flow_00.2" eclass="HBEFA3/PC_G_EU4" CO2="13052.44" CO="197.43" HC="1.22" NOx="5.67" PMx="0.29" fuel="5.61" electricity="0.00" noise="73.86" route="routeedge0_0" type="traffic" waiting="0.00" lane="edge0_1" pos="70.80" speed="17.72" angle="90.00" x="365.44" y="113.40"/>
        <vehicle id="flow_00.3" eclass="HBEFA3/PC_G_EU4" CO2="8172.15" CO="149.63" HC="0.88" NOx="3.57" PMx="0.17" fuel="3.51" electricity="0.00" noise="70.82" route="routeedge0_0" type="traffic" waiting="0.00" lane="edge0_0" pos="25.86" speed="9.41" angle="90.00" x="323.90" y="110.20"/>
        <vehicle id="flow_00.4" eclass="HBEFA3/PC_G_EU4" CO2="0.00" CO="0.00" HC="0.00" NOx="0.00" PMx="0.00" fuel="0.00" electricity="0.00" noise="64.72" route="routeedge0_0" type="traffic" waiting="0.00" lane="edge0_1" pos="22.85" speed="17.75" angle="90.00" x="321.12" y="113.40"/>
        <vehicle id="flow_10.0" eclass="HBEFA3/PC_G_EU4" CO2="6448.04" CO="87.61" HC="0.55" NOx="2.68" PMx="0.12" fuel="2.77" electricity="0.00" noise="67.65" route="routeedge0_0" type="truck" waiting="0.00" lane="edge0_0" pos="66.19" speed="12.53" angle="90.00" x="361.18" y="110.20"/>
        <vehicle id="rl_0" eclass="HBEFA3/PC_G_EU4" CO2="2106.78" CO="53.95" HC="0.29" NOx="0.78" PMx="0.02" fuel="0.91" electricity="0.00" noise="59.46" route="routeedge4_0" type="rl" waiting="0.00" lane="edge4_0" pos="178.56" speed="6.74" angle="90.00" x="178.56" y="-1.60"/>
    </timestep>
    <timestep time="11.00">
        <vehicle id="flow_00.0" eclass="HBEFA3/PC_G_EU4" CO2="6514.34" CO="62.71" HC="0.45" NOx="2.42" PMx="0.13" fuel="2.80" electricity="0.00" noise="71.79" route="routeedge0_0" type="traffic" waiting="0.00" lane="edge0_0" pos="185.04" speed="24.54" angle="90.00" x="471.04" y="110.20"/>
        <vehicle id="flow_00.1" eclass="HBEFA3/PC_G_EU4" CO2="10943.95" CO="151.75" HC="0.96" NOx="4.53" PMx="0.24" fuel="4.70" electricity="0.00" noise="73.20" route="routeedge0_0" type="traffic" waiting="0.00" lane="edge0_1" pos="140.70" speed="23.67" angle="90.00" x="430.06" y="113.40"/>
        <vehicle id="flow_00.2" eclass="HBEFA3/PC_G_EU4" CO2="13723.28" CO="207.12" HC="1.28" NOx="5.93" PMx="0.31" fuel="5.90" electricity="0.00" noise="74.27" route="routeedge0_0" type="traffic" waiting="0.00" lane="edge0_1" pos="90.58" speed="19.78" angle="90.00" x="383.73" y="113.40"/>
        <vehicle id="flow_00.3" eclass="HBEFA3/PC_G_EU4" CO2="9458.00" CO="155.22" HC="0.93" NOx="4.12" PMx="0.20" fuel="4.07" electricity="0.00" noise="71.50" route="routeedge0_0" type="traffic" waiting="0.00" lane="edge0_0" pos="37.64" speed="11.78" angle="90.00" x="334.79" y="110.20"/>
        <vehicle id="flow_00.4" eclass="HBEFA3/PC_G_EU4" CO2="10572.70" CO="142.98" HC="0.91" NOx="4.46" PMx="0.23" fuel="4.54" electricity="0.00" noise="72.03" route="routeedge0_0" type="traffic" waiting="0.00" lane="edge0_1" pos="42.10" speed="19.25" angle="90.00" x="338.92" y="113.40"/>
        <vehicle id="flow_00.5" eclass="HBEFA3/PC_G_EU4" CO2="2601.56" CO="0.00" HC="0.00" NOx="0.77" PMx="0.02" fuel="1.12" electricity="0.00" noise="66.24" route="routeedge0_0" type="traffic" waiting="0.00" lane="edge0_0" pos="5.10" speed="16.35" angle="90.00" x="304.71" y="110.20"/>
        <vehicle id="flow_10.0" eclass="HBEFA3/PC_G_EU4" CO2="6533.41" CO="81.46" HC="0.53" NOx="2.69" PMx="0.12" fuel="2.81" electricity="0.00" noise="67.91" route="routeedge0_0" type="truck" waiting="0.00" lane="edge0_0" pos="79.90" speed="13.71" angle="90.00" x="373.85" y="110.20"/>
        <vehicle id="rl_0" eclass="HBEFA3/PC_G_EU4" CO2="2106.78" CO="53.95" HC="0.29" NOx="0.78" PMx="0.02" fuel="0.91" electricity="0.00" noise="59.46" route="routeedge4_0" type="rl" waiting="0.00" lane="edge4_0" pos="185.30" speed="6.74" angle="90.00" x="185.30" y="-1.60"/>
    </timestep>
    <timestep time="12.00">
        <vehicle id="flow_00.0" eclass="HBEFA3/PC_G_EU4" CO2="5323.09" CO="38.68" HC="0.31" NOx="1.85" PMx="0.10" fuel="2.29" electricity="0.00" noise="71.52" route="routeedge0_0" type="traffic" waiting="0.00" lane="edge1_1" pos="0.90" speed="24.71" angle="90.00" x="494.63" y="110.20"/>
        <vehicle id="flow_00.1" eclass="HBEFA3/PC_G_EU4" CO2="8035.21" CO="93.33" HC="0.62" NOx="3.14" PMx="0.17" fuel="3.45" electricity="0.00" noise="72.20" route="routeedge0_0" type="traffic" waiting="0.00" lane="edge0_1" pos="164.99" speed="24.29" angle="90.00" x="452.51" y="113.40"/>
        <vehicle id="flow_00.2" eclass="HBEFA3/PC_G_EU4" CO2="13575.87" CO="203.38" HC="1.26" NOx="5.82" PMx="0.31" fuel="5.84" electricity="0.00" noise="74.24" route="routeedge0_0" type="traffic" waiting="0.00" lane="edge0_1" pos="112.15" speed="21.57" angle="90.00" x="403.67" y="113.40"/>
        <vehicle id="flow_00.3" eclass="HBEFA3/PC_G_EU4" CO2="10302.56" CO="157.48" HC="0.97" NOx="4.46" PMx="0.22" fuel="4.43" electricity="0.00" noise="71.84" route="routeedge0_0" type="traffic" waiting="0.00" lane="edge0_0" pos="51.60" speed="13.97" angle="90.00" x="347.70" y="110.20"/>
        <vehicle id="flow_00.4" eclass="HBEFA3/PC_G_EU4" CO2="10852.19" CO="147.33" HC="0.94" NOx="4.56" PMx="0.23" fuel="4.66" electricity="0.00" noise="72.45" route="routeedge0_0" type="traffic" waiting="0.00" lane="edge0_1" pos="62.76" speed="20.66" angle="90.00" x="358.01" y="113.40"/>
        <vehicle id="flow_00.5" eclass="HBEFA3/PC_G_EU4" CO2="0.00" CO="0.00" HC="0.00" NOx="0.00" PMx="0.00" fuel="0.00" electricity="0.00" noise="61.41" route="routeedge0_0" type="traffic" waiting="0.00" lane="edge0_0" pos="18.76" speed="13.66" angle="90.00" x="317.34" y="110.20"/>
        <vehicle id="flow_10.0" eclass="HBEFA3/PC_G_EU4" CO2="6420.49" CO="73.11" HC="0.49" NOx="2.61" PMx="0.12" fuel="2.76" electricity="0.00" noise="68.04" route="routeedge0_0" type="truck" waiting="0.00" lane="edge0_0" pos="94.65" speed="14.75" angle="90.00" x="387.49" y="110.20"/>
        <vehicle id="rl_0" eclass="HBEFA3/PC_G_EU4" CO2="2106.78" CO="53.95" HC="0.29" NOx="0.78" PMx="0.02" fuel="0.91" electricity="0.00" noise="59.46" route="routeedge4_0" type="rl" waiting="0.00" lane="edge4_0" pos="192.04" speed="6.74" angle="90.00" x="192.04" y="-1.60"/>
    </timestep>
    <timestep time="13.00">
        <vehicle id="flow_00.0" eclass="HBEFA3/PC_G_EU4" CO2="4736.42" CO="26.84" HC="0.24" NOx="1.58" PMx="0.08" fuel="2.04" electricity="0.00" noise="71.39" route="routeedge0_0" type="traffic" waiting="0.00" lane="edge1_1" pos="25.69" speed="24.79" angle="90.00" x="519.73" y="110.20"/>
        <vehicle id="flow_00.1" eclass="HBEFA3/PC_G_EU4" CO2="6150.41" CO="55.37" HC="0.40" NOx="2.25" PMx="0.12" fuel="2.64" electricity="0.00" noise="71.70" route="routeedge0_0" type="traffic" waiting="0.00" lane="edge0_1" pos="189.58" speed="24.59" angle="90.00" x="475.24" y="113.40"/>
        <vehicle id="flow_00.2" eclass="HBEFA3/PC_G_EU4" CO2="11722.17" CO="166.42" HC="1.05" NOx="4.92" PMx="0.26" fuel="5.04" electricity="0.00" noise="73.39" route="routeedge0_0" type="traffic" waiting="0.00" lane="edge0_1" pos="135.06" speed="22.91" angle="90.00" x="424.84" y="113.40"/>
        <vehicle id="flow_00.3" eclass="HBEFA3/PC_G_EU4" CO2="10441.73" CO="150.41" HC="0.94" NOx="4.48" PMx="0.22" fuel="4.49" electricity="0.00" noise="71.73" route="routeedge0_0" type="traffic" waiting="0.00" lane="edge0_0" pos="67.48" speed="15.88" angle="90.00" x="362.38" y="110.20"/>
        <vehicle id="flow_00.4" eclass="HBEFA3/PC_G_EU4" CO2="10494.34" CO="140.08" HC="0.90" NOx="4.36" PMx="0.23" fuel="4.51" electricity="0.00" noise="72.52" route="routeedge0_0" type="traffic" waiting="0.00" lane="edge0_1" pos="84.64" speed="21.88" angle="90.00" x="378.23" y="113.40"/>
        <vehicle id="flow_00.5" eclass="HBEFA3/PC_G_EU4" CO2="8119.89" CO="106.30" HC="0.68" NOx="3.40" PMx="0.16" fuel="3.49" electricity="0.00" noise="69.59" route="routeedge0_0" type="traffic" waiting="0.00" lane="edge0_0" pos="33.85" speed="15.10" angle="90.00" x="331.29" y="110.20"/>
        <vehicle id="flow_00.6" eclass="HBEFA3/PC_G_EU4" CO2="2699.74" CO="0.00" HC="0.00" NOx="0.80" PMx="0.02" fuel="1.16" electricity="0.00" noise="66.73" route="routeedge0_0" type="traffic" waiting="0.00" lane="edge0_0" pos="5.10" speed="17.09" angle="90.00" x="304.71" y="110.20"/>
        <vehicle id="flow_10.0" eclass="HBEFA3/PC_G_EU4" CO2="6124.02" CO="62.60" HC="0.43" NOx="2.45" PMx="0.11" fuel="2.63" electricity="0.00" noise="68.06" route="routeedge0_0" type="truck" waiting="0.00" lane="edge0_0" pos="110.28" speed="15.63" angle="90.00" x="401.94" y="110.20"/>
        <vehicle id="rl_0" eclass="HBEFA3/PC_G_EU4" CO2="2106.78" CO="53.95" HC="0.29" NOx="0.78" PMx="0.02" fuel="0.91" electricity="0.00" noise="59.46" route="routeedge4_0" type="rl" waiting="0.00" lane="edge4_0" pos="198.78" speed="6.74" angle="90.00" x="198.78" y="-1.60"/>
    </timestep>
    <timestep time="14.00">
        <vehicle id="flow_00.0" eclass="HBEFA3/PC_G_EU4" CO2="4465.36" CO="21.36" HC="0.21" NOx="1.45" PMx="0.07" fuel="1.92" electricity="0.00" noise="71.34" route="routeedge0_0" type="traffic" waiting="0.00" lane="edge1_1" pos="50.51" speed="24.82" angle="90.00" x="544.87" y="110.20"/>
        <vehicle id="flow_00.1" eclass="HBEFA3/PC_G_EU4" CO2="5138.49" CO="34.96" HC="0.29" NOx="1.77" PMx="0.09" fuel="2.21" electricity="0.00" noise="71.48" route="routeedge0_0" type="traffic" waiting="0.00" lane="edge1_2" pos="5.47" speed="24.74" angle="90.00" x="499.26" y="113.40"/>
        <vehicle id="flow_00.2" eclass="HBEFA3/PC_G_EU4" CO2="7494.16" CO="80.38" HC="0.55" NOx="2.91" PMx="0.15" fuel="3.22" electricity="0.00" noise="71.70" route="routeedge0_0" type="traffic" waiting="0.00" lane="edge0_1" pos="158.55" speed="23.49" angle="90.00" x="446.56" y="113.40"/>
        <vehicle id="flow_00.3" eclass="HBEFA3/PC_G_EU4" CO2="9683.51" CO="129.03" HC="0.82" NOx="4.08" PMx="0.20" fuel="4.16" electricity="0.00" noise="71.15" route="routeedge0_0" type="traffic" waiting="0.00" lane="edge0_0" pos="84.89" speed="17.40" angle="90.00" x="378.46" y="110.20"/>
        <vehicle id="flow_00.4" eclass="HBEFA3/PC_G_EU4" CO2="8373.11" CO="97.14" HC="0.65" NOx="3.34" PMx="0.17" fuel="3.60" electricity="0.00" noise="71.74" route="routeedge0_0" type="traffic" waiting="0.00" lane="edge0_1" pos="107.30" speed="22.66" angle="90.00" x="399.18" y="113.40"/>
        <vehicle id="flow_00.5" eclass="HBEFA3/PC_G_EU4" CO2="8647.12" CO="110.88" HC="0.71" NOx="3.62" PMx="0.17" fuel="3.72" electricity="0.00" noise="70.22" route="routeedge0_0" type="traffic" waiting="0.00" lane="edge0_0" pos="50.35" speed="16.50" angle="90.00" x="346.54" y="110.20"/>
        <vehicle id="flow_00.6" eclass="HBEFA3/PC_G_EU4" CO2="0.00" CO="0.00" HC="0.00" NOx="0.00" PMx="0.00" fuel="0.00" electricity="0.00" noise="63.47" route="routeedge0_0" type="traffic" waiting="0.00" lane="edge0_0" pos="20.55" speed="15.45" angle="90.00" x="318.99" y="110.20"/>
        <vehicle id="flow_10.0" eclass="HBEFA3/PC_G_EU4" CO2="5693.58" CO="50.61" HC="0.37" NOx="2.23" PMx="0.10" fuel="2.45" electricity="0.00" noise="68.02" route="routeedge0_0" type="truck" waiting="0.00" lane="edge0_0" pos="126.64" speed="16.36" angle="90.00" x="417.06" y="110.20"/>
        <vehicle id="rl_0" eclass="HBEFA3/PC_G_EU4" CO2="2106.78" CO="53.95" HC="0.29" NOx="0.78" PMx="0.02" fuel="0.91" electricity="0.00" noise="59.46" route="routeedge4_0" type="rl" waiting="0.00" lane="edge4_0" pos="205.53" speed="6.74" angle="90.00" x="205.53" y="-1.60"/>
    </timestep>
    <timestep time="15.00">
        <vehicle id="flow_00.0" eclass="HBEFA3/PC_G_EU4" CO2="4343.87" CO="18.91" HC="0.19" NOx="1.39" PMx="0.07" fuel="1.87" electricity="0.00" noise="71.32" route="routeedge0_0" type="traffic" waiting="0.00" lane="edge1_1" pos="75.35" speed="24.84" angle="90.00" x="570.02" y="110.20"/>
        <vehicle id="flow_00.1" eclass="HBEFA3/PC_G_EU4" CO2="4649.91" CO="25.09" HC="0.23" NOx="1.54" PMx="0.08" fuel="2.00" electricity="0.00" noise="71.38" route="routeedge0_0" type="traffic" waiting="0.00" lane="edge1_2" pos="30.27" speed="24.80" angle="90.00" x="524.37" y="113.40"/>
        <vehicle id="flow_00.2" eclass="HBEFA3/PC_G_EU4" CO2="5248.04" CO="34.56" HC="0.29" NOx="1.84" PMx="0.09" fuel="2.26" electricity="0.00" noise="71.04" route="routeedge0_0" type="traffic" waiting="0.00" lane="edge0_1" pos="182.25" speed="23.70" angle="90.00" x="468.46" y="113.40"/>
        <vehicle id="flow_00.3" eclass="HBEFA3/PC_G_EU4" CO2="8174.08" CO="95.03" HC="0.63" NOx="3.34" PMx="0.16" fuel="3.51" electricity="0.00" noise="70.31" route="routeedge0_0" type="traffic" waiting="0.00" lane="edge0_0" pos="103.38" speed="18.50" angle="90.00" x="395.56" y="110.20"/>
        <vehicle id="flow_00.4" eclass="HBEFA3/PC_G_EU4" CO2="6125.59" CO="51.42" HC="0.38" NOx="2.27" PMx="0.11" fuel="2.63" electricity="0.00" noise="71.03" route="routeedge0_0" type="traffic" waiting="0.00" lane="edge0_1" pos="130.35" speed="23.05" angle="90.00" x="420.49" y="113.40"/>
        <vehicle id="flow_00.5" eclass="HBEFA3/PC_G_EU4" CO2="8785.46" CO="109.40" HC="0.71" NOx="3.65" PMx="0.18" fuel="3.78" electricity="0.00" noise="70.55" route="routeedge0_0" type="traffic" waiting="0.00" lane="edge0_1" pos="68.14" speed="17.79" angle="90.00" x="362.98" y="113.40"/>
        <vehicle id="flow_00.6" eclass="HBEFA3/PC_G_EU4" CO2="7607.43" CO="89.10" HC="0.59" NOx="3.12" PMx="0.15" fuel="3.27" electricity="0.00" noise="69.44" route="routeedge0_0" type="traffic" waiting="0.00" lane="edge0_0" pos="37.14" speed="16.60" angle="90.00" x="334.33" y="110.20"/>
        <vehicle id="flow_00.7" eclass="HBEFA3/PC_G_EU4" CO2="3048.94" CO="0.00" HC="0.02" NOx="0.91" PMx="0.03" fuel="1.31" electricity="0.00" noise="68.14" route="routeedge0_0" type="traffic" waiting="0.00" lane="edge0_0" pos="5.10" speed="19.33" angle="90.00" x="304.71" y="110.20"/>
        <vehicle id="flow_10.0" eclass="HBEFA3/PC_G_EU4" CO2="5198.66" CO="38.27" HC="0.30" NOx="1.98" PMx="0.08" fuel="2.23" electricity="0.00" noise="67.94" route="routeedge0_0" type="truck" waiting="0.00" lane="edge0_0" pos="143.57" speed="16.93" angle="90.00" x="432.71" y="110.20"/>
        <vehicle id="rl_0" eclass="HBEFA3/PC_G_EU4" CO2="2106.78" CO="53.95" HC="0.29" NOx="0.78" PMx="0.02" fuel="0.91" electricity="0.00" noise="59.46" route="routeedge4_0" type="rl" waiting="0.00" lane="edge4_0" pos="212.27" speed="6.74" angle="90.00" x="212.27" y="-1.60"/>
    </timestep>
    <timestep time="16.00">
        <vehicle id="flow_00.0" eclass="HBEFA3/PC_G_EU4" CO2="4290.17" CO="17.82" HC="0.19" NOx="1.36" PMx="0.07" fuel="1.84" electricity="0.00" noise="71.31" route="routeedge0_0" type="traffic" waiting="0.00" lane="edge1_1" pos="100.20" speed="24.85" angle="90.00" x="595.18" y="110.20"/>
        <vehicle id="flow_00.1" eclass="HBEFA3/PC_G_EU4" CO2="4426.33" CO="20.58" HC="0.20" NOx="1.43" PMx="0.07" fuel="1.90" electricity="0.00" noise="71.33" route="routeedge0_0" type="traffic" waiting="0.00" lane="edge1_2" pos="55.10" speed="24.83" angle="90.00" x="549.51" y="113.40"/>