<?xml version="1.0" encoding="UTF-8"?>

<!-- generated on Wed Apr  8 23:15:30 2020 by Eclipse SUMO Version 1.5.0
<configuration xmlns:xsi="http://www.w3.org/2001/XMLSchema-instance" xsi:noNamespaceSchemaLocation="http://sumo.dlr.de/xsd/sumoConfiguration.xsd">

    <input>
        <net-file value="/home/akos/workspace/flow/flow/core/kernel/network/debug/cfg/singleagent_autobahn_20200408-2315161586380516.7112403.net.xml"/>
        <route-files value="/home/akos/workspace/flow/flow/core/kernel/network/debug/cfg/singleagent_autobahn_20200408-2315161586380516.7112403.rou.xml"/>
        <additional-files value="/home/akos/workspace/flow/flow/core/kernel/network/debug/cfg/singleagent_autobahn_20200408-2315161586380516.7112403.add.xml"/>
    </input>

    <output>
        <emission-output value="emission_results/singleagent_autobahn_20200408-2315161586380516.7112403-emission.xml"/>
    </output>

    <time>
        <begin value="0"/>
        <step-length value="1"/>
    </time>

    <processing>
        <collision.check-junctions value="true"/>
        <time-to-teleport value="-1"/>
    </processing>

    <report>
        <no-step-log value="true"/>
    </report>

    <traci_server>
        <remote-port value="58245"/>
        <num-clients value="1"/>
    </traci_server>

    <random_number>
        <seed value="45363"/>
    </random_number>

    <gui_only>
        <gui-settings-file value="/home/akos/workspace/flow/flow/core/kernel/network/debug/cfg/singleagent_autobahn_20200408-2315161586380516.7112403.gui.cfg"/>
        <tracker-interval value="1"/>
    </gui_only>

</configuration>
-->

<emission-export xmlns:xsi="http://www.w3.org/2001/XMLSchema-instance" xsi:noNamespaceSchemaLocation="http://sumo.dlr.de/xsd/emission_file.xsd">
    <timestep time="0.00"/>
    <timestep time="1.00">
        <vehicle id="flow_00.0" eclass="HBEFA3/PC_G_EU4" CO2="5683.72" CO="71.09" HC="0.47" NOx="1.92" PMx="0.12" fuel="2.44" electricity="0.00" noise="73.73" route="routeedge0_0" type="traffic" waiting="0.00" lane="edge0_0" pos="5.10" speed="29.66" angle="90.00" x="5.10" y="-8.00"/>
        <vehicle id="rl_0" eclass="HBEFA3/PC_G_EU4" CO2="2624.72" CO="164.78" HC="0.81" NOx="1.20" PMx="0.07" fuel="1.13" electricity="0.00" noise="55.94" route="routeedge2_0" type="rl" waiting="0.00" lane="edge2_0" pos="130.69" speed="0.00" angle="90.00" x="530.69" y="-8.00"/>
        <vehicle id="traffic0_0" eclass="HBEFA3/PC_G_EU4" CO2="2624.72" CO="164.78" HC="0.81" NOx="1.20" PMx="0.07" fuel="1.13" electricity="0.00" noise="55.94" route="routeedge2_0" type="traffic0" waiting="0.00" lane="edge2_0" pos="920.48" speed="0.00" angle="90.00" x="1320.48" y="-8.00"/>
        <vehicle id="traffic10_0" eclass="HBEFA3/PC_G_EU4" CO2="2624.72" CO="164.78" HC="0.81" NOx="1.20" PMx="0.07" fuel="1.13" electricity="0.00" noise="55.94" route="routeedge2_0" type="traffic10" waiting="0.00" lane="edge2_2" pos="932.74" speed="0.00" angle="90.00" x="1332.74" y="-1.60"/>
        <vehicle id="traffic11_0" eclass="HBEFA3/PC_G_EU4" CO2="2624.72" CO="164.78" HC="0.81" NOx="1.20" PMx="0.07" fuel="1.13" electricity="0.00" noise="55.94" route="routeedge2_0" type="traffic11" waiting="0.00" lane="edge2_2" pos="1075.19" speed="0.00" angle="90.00" x="1475.19" y="-1.60"/>
        <vehicle id="traffic12_0" eclass="HBEFA3/PC_G_EU4" CO2="2624.72" CO="164.78" HC="0.81" NOx="1.20" PMx="0.07" fuel="1.13" electricity="0.00" noise="55.94" route="routeedge2_0" type="traffic12" waiting="0.00" lane="edge2_2" pos="1125.78" speed="0.00" angle="90.00" x="1525.78" y="-1.60"/>
        <vehicle id="traffic13_0" eclass="HBEFA3/PC_G_EU4" CO2="2624.72" CO="164.78" HC="0.81" NOx="1.20" PMx="0.07" fuel="1.13" electricity="0.00" noise="55.94" route="routeedge2_0" type="traffic13" waiting="0.00" lane="edge2_2" pos="1415.47" speed="0.00" angle="90.00" x="1815.47" y="-1.60"/>
        <vehicle id="traffic14_0" eclass="HBEFA3/PC_G_EU4" CO2="2624.72" CO="164.78" HC="0.81" NOx="1.20" PMx="0.07" fuel="1.13" electricity="0.00" noise="55.94" route="routeedge2_0" type="traffic14" waiting="0.00" lane="edge2_2" pos="1698.50" speed="0.00" angle="90.00" x="2098.50" y="-1.60"/>
        <vehicle id="traffic1_0" eclass="HBEFA3/PC_G_EU4" CO2="2624.72" CO="164.78" HC="0.81" NOx="1.20" PMx="0.07" fuel="1.13" electricity="0.00" noise="55.94" route="routeedge2_0" type="traffic1" waiting="0.00" lane="edge2_0" pos="1145.60" speed="0.00" angle="90.00" x="1545.60" y="-8.00"/>
        <vehicle id="traffic2_0" eclass="HBEFA3/PC_G_EU4" CO2="2624.72" CO="164.78" HC="0.81" NOx="1.20" PMx="0.07" fuel="1.13" electricity="0.00" noise="55.94" route="routeedge2_0" type="traffic2" waiting="0.00" lane="edge2_0" pos="1510.79" speed="0.00" angle="90.00" x="1910.79" y="-8.00"/>
        <vehicle id="traffic3_0" eclass="HBEFA3/PC_G_EU4" CO2="2624.72" CO="164.78" HC="0.81" NOx="1.20" PMx="0.07" fuel="1.13" electricity="0.00" noise="55.94" route="routeedge2_0" type="traffic3" waiting="0.00" lane="edge2_0" pos="1987.75" speed="0.00" angle="90.00" x="2387.75" y="-8.00"/>
        <vehicle id="traffic4_0" eclass="HBEFA3/PC_G_EU4" CO2="2624.72" CO="164.78" HC="0.81" NOx="1.20" PMx="0.07" fuel="1.13" electricity="0.00" noise="55.94" route="routeedge2_0" type="traffic4" waiting="0.00" lane="edge2_1" pos="84.87" speed="0.00" angle="90.00" x="484.87" y="-4.80"/>
        <vehicle id="traffic5_0" eclass="HBEFA3/PC_G_EU4" CO2="2624.72" CO="164.78" HC="0.81" NOx="1.20" PMx="0.07" fuel="1.13" electricity="0.00" noise="55.94" route="routeedge2_0" type="traffic5" waiting="0.00" lane="edge2_1" pos="390.99" speed="0.00" angle="90.00" x="790.99" y="-4.80"/>
        <vehicle id="traffic6_0" eclass="HBEFA3/PC_G_EU4" CO2="2624.72" CO="164.78" HC="0.81" NOx="1.20" PMx="0.07" fuel="1.13" electricity="0.00" noise="55.94" route="routeedge2_0" type="traffic6" waiting="0.00" lane="edge2_1" pos="665.98" speed="0.00" angle="90.00" x="1065.98" y="-4.80"/>
        <vehicle id="traffic7_0" eclass="HBEFA3/PC_G_EU4" CO2="2624.72" CO="164.78" HC="0.81" NOx="1.20" PMx="0.07" fuel="1.13" electricity="0.00" noise="55.94" route="routeedge2_0" type="traffic7" waiting="0.00" lane="edge2_1" pos="1682.65" speed="0.00" angle="90.00" x="2082.65" y="-4.80"/>
        <vehicle id="traffic8_0" eclass="HBEFA3/PC_G_EU4" CO2="2624.72" CO="164.78" HC="0.81" NOx="1.20" PMx="0.07" fuel="1.13" electricity="0.00" noise="55.94" route="routeedge2_0" type="traffic8" waiting="0.00" lane="edge2_2" pos="268.97" speed="0.00" angle="90.00" x="668.97" y="-1.60"/>
        <vehicle id="traffic9_0" eclass="HBEFA3/PC_G_EU4" CO2="2624.72" CO="164.78" HC="0.81" NOx="1.20" PMx="0.07" fuel="1.13" electricity="0.00" noise="55.94" route="routeedge2_0" type="traffic9" waiting="0.00" lane="edge2_2" pos="901.74" speed="0.00" angle="90.00" x="1301.74" y="-1.60"/>
    </timestep>
    <timestep time="2.00">
        <vehicle id="flow_00.0" eclass="HBEFA3/PC_G_EU4" CO2="6498.51" CO="88.59" HC="0.57" NOx="2.30" PMx="0.14" fuel="2.79" electricity="0.00" noise="73.94" route="routeedge0_0" type="traffic" waiting="0.00" lane="edge0_0" pos="34.87" speed="29.77" angle="90.00" x="34.87" y="-8.00"/>
        <vehicle id="rl_0" eclass="HBEFA3/PC_G_EU4" CO2="2624.72" CO="164.78" HC="0.81" NOx="1.20" PMx="0.07" fuel="1.13" electricity="0.00" noise="55.94" route="routeedge2_0" type="rl" waiting="1.00" lane="edge2_0" pos="130.69" speed="0.00" angle="90.00" x="530.69" y="-8.00"/>
        <vehicle id="traffic0_0" eclass="HBEFA3/PC_G_EU4" CO2="4101.54" CO="152.06" HC="0.79" NOx="1.83" PMx="0.09" fuel="1.76" electricity="0.00" noise="68.38" route="routeedge2_0" type="traffic0" waiting="0.00" lane="edge2_0" pos="923.08" speed="2.60" angle="90.00" x="1323.08" y="-8.00"/>
        <vehicle id="traffic10_0" eclass="HBEFA3/PC_G_EU4" CO2="4099.98" CO="152.05" HC="0.79" NOx="1.83" PMx="0.09" fuel="1.76" electricity="0.00" noise="68.37" route="routeedge2_0" type="traffic10" waiting="0.00" lane="edge2_2" pos="935.34" speed="2.60" angle="90.00" x="1335.34" y="-1.60"/>
        <vehicle id="traffic11_0" eclass="HBEFA3/PC_G_EU4" CO2="4079.13" CO="151.88" HC="0.79" NOx="1.82" PMx="0.09" fuel="1.75" electricity="0.00" noise="68.29" route="routeedge2_0" type="traffic11" waiting="0.00" lane="edge2_2" pos="1077.77" speed="2.58" angle="90.00" x="1477.77" y="-1.60"/>
        <vehicle id="traffic12_0" eclass="HBEFA3/PC_G_EU4" CO2="4101.94" CO="152.07" HC="0.79" NOx="1.83" PMx="0.09" fuel="1.76" electricity="0.00" noise="68.38" route="routeedge2_0" type="traffic12" waiting="0.00" lane="edge2_2" pos="1128.37" speed="2.60" angle="90.00" x="1528.37" y="-1.60"/>
        <vehicle id="traffic13_0" eclass="HBEFA3/PC_G_EU4" CO2="4101.91" CO="152.07" HC="0.79" NOx="1.83" PMx="0.09" fuel="1.76" electricity="0.00" noise="68.38" route="routeedge2_0" type="traffic13" waiting="0.00" lane="edge2_2" pos="1418.07" speed="2.60" angle="90.00" x="1818.07" y="-1.60"/>
        <vehicle id="traffic14_0" eclass="HBEFA3/PC_G_EU4" CO2="4102.53" CO="152.07" HC="0.79" NOx="1.83" PMx="0.09" fuel="1.76" electricity="0.00" noise="68.38" route="routeedge2_0" type="traffic14" waiting="0.00" lane="edge2_2" pos="1701.10" speed="2.60" angle="90.00" x="2101.10" y="-1.60"/>
        <vehicle id="traffic1_0" eclass="HBEFA3/PC_G_EU4" CO2="4102.16" CO="152.07" HC="0.79" NOx="1.83" PMx="0.09" fuel="1.76" electricity="0.00" noise="68.38" route="routeedge2_0" type="traffic1" waiting="0.00" lane="edge2_0" pos="1148.20" speed="2.60" angle="90.00" x="1548.20" y="-8.00"/>
        <vehicle id="traffic2_0" eclass="HBEFA3/PC_G_EU4" CO2="4102.31" CO="152.07" HC="0.79" NOx="1.83" PMx="0.09" fuel="1.76" electricity="0.00" noise="68.38" route="routeedge2_0" type="traffic2" waiting="0.00" lane="edge2_0" pos="1513.39" speed="2.60" angle="90.00" x="1913.39" y="-8.00"/>
        <vehicle id="traffic3_0" eclass="HBEFA3/PC_G_EU4" CO2="4102.53" CO="152.07" HC="0.79" NOx="1.83" PMx="0.09" fuel="1.76" electricity="0.00" noise="68.38" route="routeedge2_0" type="traffic3" waiting="0.00" lane="edge2_0" pos="1990.35" speed="2.60" angle="90.00" x="2390.35" y="-8.00"/>
        <vehicle id="traffic4_0" eclass="HBEFA3/PC_G_EU4" CO2="4102.00" CO="152.07" HC="0.79" NOx="1.83" PMx="0.09" fuel="1.76" electricity="0.00" noise="68.38" route="routeedge2_0" type="traffic4" waiting="0.00" lane="edge2_1" pos="87.47" speed="2.60" angle="90.00" x="487.47" y="-4.80"/>
        <vehicle id="traffic5_0" eclass="HBEFA3/PC_G_EU4" CO2="4101.87" CO="152.07" HC="0.79" NOx="1.83" PMx="0.09" fuel="1.76" electricity="0.00" noise="68.38" route="routeedge2_0" type="traffic5" waiting="0.00" lane="edge2_1" pos="393.58" speed="2.60" angle="90.00" x="793.58" y="-4.80"/>
        <vehicle id="traffic6_0" eclass="HBEFA3/PC_G_EU4" CO2="4102.48" CO="152.07" HC="0.79" NOx="1.83" PMx="0.09" fuel="1.76" electricity="0.00" noise="68.38" route="routeedge2_0" type="traffic6" waiting="0.00" lane="edge2_1" pos="668.58" speed="2.60" angle="90.00" x="1068.58" y="-4.80"/>
        <vehicle id="traffic7_0" eclass="HBEFA3/PC_G_EU4" CO2="4102.53" CO="152.07" HC="0.79" NOx="1.83" PMx="0.09" fuel="1.76" electricity="0.00" noise="68.38" route="routeedge2_0" type="traffic7" waiting="0.00" lane="edge2_1" pos="1685.25" speed="2.60" angle="90.00" x="2085.25" y="-4.80"/>
        <vehicle id="traffic8_0" eclass="HBEFA3/PC_G_EU4" CO2="4102.41" CO="152.07" HC="0.79" NOx="1.83" PMx="0.09" fuel="1.76" electricity="0.00" noise="68.38" route="routeedge2_0" type="traffic8" waiting="0.00" lane="edge2_2" pos="271.57" speed="2.60" angle="90.00" x="671.57" y="-1.60"/>
        <vehicle id="traffic9_0" eclass="HBEFA3/PC_G_EU4" CO2="4030.43" CO="151.48" HC="0.78" NOx="1.80" PMx="0.09" fuel="1.73" electricity="0.00" noise="68.11" route="routeedge2_0" type="traffic9" waiting="0.00" lane="edge2_2" pos="904.28" speed="2.54" angle="90.00" x="1304.28" y="-1.60"/>
    </timestep>
    <timestep time="3.00">
        <vehicle id="flow_00.0" eclass="HBEFA3/PC_G_EU4" CO2="6291.35" CO="84.83" HC="0.55" NOx="2.20" PMx="0.14" fuel="2.70" electricity="0.00" noise="73.92" route="routeedge0_0" type="traffic" waiting="0.00" lane="edge0_0" pos="64.70" speed="29.84" angle="90.00" x="64.70" y="-8.00"/>
        <vehicle id="rl_0" eclass="HBEFA3/PC_G_EU4" CO2="2624.72" CO="164.78" HC="0.81" NOx="1.20" PMx="0.07" fuel="1.13" electricity="0.00" noise="55.94" route="routeedge2_0" type="rl" waiting="2.00" lane="edge2_0" pos="130.69" speed="0.00" angle="90.00" x="530.69" y="-8.00"/>
        <vehicle id="traffic0_0" eclass="HBEFA3/PC_G_EU4" CO2="5679.80" CO="147.11" HC="0.80" NOx="2.50" PMx="0.12" fuel="2.44" electricity="0.00" noise="69.45" route="routeedge2_0" type="traffic0" waiting="0.00" lane="edge2_0" pos="928.28" speed="5.20" angle="90.00" x="1328.28" y="-8.00"/>
        <vehicle id="traffic10_0" eclass="HBEFA3/PC_G_EU4" CO2="5671.31" CO="147.01" HC="0.80" NOx="2.50" PMx="0.12" fuel="2.44" electricity="0.00" noise="69.43" route="routeedge2_0" type="traffic10" waiting="0.00" lane="edge2_2" pos="940.53" speed="5.19" angle="90.00" x="1340.53" y="-1.60"/>
        <vehicle id="traffic11_0" eclass="HBEFA3/PC_G_EU4" CO2="5560.51" CO="145.63" HC="0.80" NOx="2.45" PMx="0.12" fuel="2.39" electricity="0.00" noise="69.18" route="routeedge2_0" type="traffic11" waiting="0.00" lane="edge2_2" pos="1082.90" speed="5.12" angle="90.00" x="1482.90" y="-1.60"/>
        <vehicle id="traffic12_0" eclass="HBEFA3/PC_G_EU4" CO2="5681.97" CO="147.14" HC="0.80" NOx="2.51" PMx="0.12" fuel="2.44" electricity="0.00" noise="69.45" route="routeedge2_0" type="traffic12" waiting="0.00" lane="edge2_2" pos="1133.57" speed="5.20" angle="90.00" x="1533.57" y="-1.60"/>
        <vehicle id="traffic13_0" eclass="HBEFA3/PC_G_EU4" CO2="5681.81" CO="147.14" HC="0.80" NOx="2.51" PMx="0.12" fuel="2.44" electricity="0.00" noise="69.45" route="routeedge2_0" type="traffic13" waiting="0.00" lane="edge2_2" pos="1423.27" speed="5.20" angle="90.00" x="1823.27" y="-1.60"/>
        <vehicle id="traffic14_0" eclass="HBEFA3/PC_G_EU4" CO2="5685.19" CO="147.18" HC="0.81" NOx="2.51" PMx="0.12" fuel="2.44" electricity="0.00" noise="69.46" route="routeedge2_0" type="traffic14" waiting="0.00" lane="edge2_2" pos="1706.30" speed="5.20" angle="90.00" x="2106.30" y="-1.60"/>
        <vehicle id="traffic1_0" eclass="HBEFA3/PC_G_EU4" CO2="5683.18" CO="147.15" HC="0.81" NOx="2.51" PMx="0.12" fuel="2.44" electricity="0.00" noise="69.45" route="routeedge2_0" type="traffic1" waiting="0.00" lane="edge2_0" pos="1153.39" speed="5.20" angle="90.00" x="1553.39" y="-8.00"/>
        <vehicle id="traffic2_0" eclass="HBEFA3/PC_G_EU4" CO2="5684.02" CO="147.16" HC="0.81" NOx="2.51" PMx="0.12" fuel="2.44" electricity="0.00" noise="69.46" route="routeedge2_0" type="traffic2" waiting="0.00" lane="edge2_0" pos="1518.59" speed="5.20" angle="90.00" x="1918.59" y="-8.00"/>
        <vehicle id="traffic3_0" eclass="HBEFA3/PC_G_EU4" CO2="5685.19" CO="147.18" HC="0.81" NOx="2.51" PMx="0.12" fuel="2.44" electricity="0.00" noise="69.46" route="routeedge2_0" type="traffic3" waiting="0.00" lane="edge2_0" pos="1995.55" speed="5.20" angle="90.00" x="2395.55" y="-8.00"/>
        <vehicle id="traffic4_0" eclass="HBEFA3/PC_G_EU4" CO2="5682.31" CO="147.14" HC="0.81" NOx="2.51" PMx="0.12" fuel="2.44" electricity="0.00" noise="69.45" route="routeedge2_0" type="traffic4" waiting="0.00" lane="edge2_1" pos="92.66" speed="5.20" angle="90.00" x="492.66" y="-4.80"/>
        <vehicle id="traffic5_0" eclass="HBEFA3/PC_G_EU4" CO2="5681.61" CO="147.13" HC="0.80" NOx="2.51" PMx="0.12" fuel="2.44" electricity="0.00" noise="69.45" route="routeedge2_0" type="traffic5" waiting="0.00" lane="edge2_1" pos="398.78" speed="5.20" angle="90.00" x="798.78" y="-4.80"/>
        <vehicle id="traffic6_0" eclass="HBEFA3/PC_G_EU4" CO2="5684.93" CO="147.18" HC="0.81" NOx="2.51" PMx="0.12" fuel="2.44" electricity="0.00" noise="69.46" route="routeedge2_0" type="traffic6" waiting="0.00" lane="edge2_1" pos="673.78" speed="5.20" angle="90.00" x="1073.78" y="-4.80"/>
        <vehicle id="traffic7_0" eclass="HBEFA3/PC_G_EU4" CO2="5685.19" CO="147.18" HC="0.81" NOx="2.51" PMx="0.12" fuel="2.44" electricity="0.00" noise="69.46" route="routeedge2_0" type="traffic7" waiting="0.00" lane="edge2_1" pos="1690.45" speed="5.20" angle="90.00" x="2090.45" y="-4.80"/>
        <vehicle id="traffic8_0" eclass="HBEFA3/PC_G_EU4" CO2="5684.52" CO="147.17" HC="0.81" NOx="2.51" PMx="0.12" fuel="2.44" electricity="0.00" noise="69.46" route="routeedge2_0" type="traffic8" waiting="0.00" lane="edge2_2" pos="276.77" speed="5.20" angle="90.00" x="676.77" y="-1.60"/>
        <vehicle id="traffic9_0" eclass="HBEFA3/PC_G_EU4" CO2="5318.23" CO="142.71" HC="0.78" NOx="2.34" PMx="0.11" fuel="2.29" electricity="0.00" noise="68.61" route="routeedge2_0" type="traffic9" waiting="0.00" lane="edge2_2" pos="909.25" speed="4.97" angle="90.00" x="1309.25" y="-1.60"/>
    </timestep>
    <timestep time="4.00">
        <vehicle id="flow_00.0" eclass="HBEFA3/PC_G_EU4" CO2="6144.08" CO="82.16" HC="0.53" NOx="2.13" PMx="0.13" fuel="2.64" electricity="0.00" noise="73.91" route="routeedge0_0" type="traffic" waiting="0.00" lane="edge0_0" pos="94.59" speed="29.89" angle="90.00" x="94.59" y="-8.00"/>
        <vehicle id="rl_0" eclass="HBEFA3/PC_G_EU4" CO2="2624.72" CO="164.78" HC="0.81" NOx="1.20" PMx="0.07" fuel="1.13" electricity="0.00" noise="55.94" route="routeedge2_0" type="rl" waiting="3.00" lane="edge2_1" pos="130.69" speed="0.00" angle="90.00" x="530.69" y="-4.80"/>
        <vehicle id="traffic0_0" eclass="HBEFA3/PC_G_EU4" CO2="7346.58" CO="149.70" HC="0.86" NOx="3.22" PMx="0.16" fuel="3.16" electricity="0.00" noise="70.56" route="routeedge2_0" type="traffic0" waiting="0.00" lane="edge2_0" pos="936.06" speed="7.79" angle="90.00" x="1336.06" y="-8.00"/>
        <vehicle id="traffic10_0" eclass="HBEFA3/PC_G_EU4" CO2="7321.17" CO="149.32" HC="0.86" NOx="3.21" PMx="0.15" fuel="3.15" electricity="0.00" noise="70.52" route="routeedge2_0" type="traffic10" waiting="0.00" lane="edge2_2" pos="948.31" speed="7.77" angle="90.00" x="1348.31" y="-1.60"/>
        <vehicle id="traffic11_0" eclass="HBEFA3/PC_G_EU4" CO2="7007.96" CO="144.78" HC="0.83" NOx="3.07" PMx="0.15" fuel="3.01" electricity="0.00" noise="70.01" route="routeedge2_0" type="traffic11" waiting="0.00" lane="edge2_2" pos="1090.50" speed="7.60" angle="90.00" x="1490.50" y="-1.60"/>
        <vehicle id="traffic12_0" eclass="HBEFA3/PC_G_EU4" CO2="7352.98" CO="149.79" HC="0.86" NOx="3.23" PMx="0.16" fuel="3.16" electricity="0.00" noise="70.57" route="routeedge2_0" type="traffic12" waiting="0.00" lane="edge2_2" pos="1141.36" speed="7.79" angle="90.00" x="1541.36" y="-1.60"/>
        <vehicle id="traffic13_0" eclass="HBEFA3/PC_G_EU4" CO2="7352.52" CO="149.79" HC="0.86" NOx="3.23" PMx="0.16" fuel="3.16" electricity="0.00" noise="70.57" route="routeedge2_0" type="traffic13" waiting="0.00" lane="edge2_2" pos="1431.06" speed="7.79" angle="90.00" x="1831.06" y="-1.60"/>
        <vehicle id="traffic14_0" eclass="HBEFA3/PC_G_EU4" CO2="7362.49" CO="149.93" HC="0.86" NOx="3.23" PMx="0.16" fuel="3.16" electricity="0.00" noise="70.59" route="routeedge2_0" type="traffic14" waiting="0.00" lane="edge2_2" pos="1714.10" speed="7.79" angle="90.00" x="2114.10" y="-1.60"/>
        <vehicle id="traffic1_0" eclass="HBEFA3/PC_G_EU4" CO2="7356.55" CO="149.84" HC="0.86" NOx="3.23" PMx="0.16" fuel="3.16" electricity="0.00" noise="70.58" route="routeedge2_0" type="traffic1" waiting="0.00" lane="edge2_0" pos="1161.18" speed="7.79" angle="90.00" x="1561.18" y="-8.00"/>
        <vehicle id="traffic2_0" eclass="HBEFA3/PC_G_EU4" CO2="7359.03" CO="149.88" HC="0.86" NOx="3.23" PMx="0.16" fuel="3.16" electricity="0.00" noise="70.58" route="routeedge2_0" type="traffic2" waiting="0.00" lane="edge2_0" pos="1526.39" speed="7.79" angle="90.00" x="1926.39" y="-8.00"/>
        <vehicle id="traffic3_0" eclass="HBEFA3/PC_G_EU4" CO2="7362.49" CO="149.93" HC="0.86" NOx="3.23" PMx="0.16" fuel="3.16" electricity="0.00" noise="70.59" route="routeedge2_0" type="traffic3" waiting="0.00" lane="edge3_0" pos="3.24" speed="7.79" angle="90.00" x="2403.24" y="-8.00"/>
        <vehicle id="traffic4_0" eclass="HBEFA3/PC_G_EU4" CO2="7353.99" CO="149.81" HC="0.86" NOx="3.23" PMx="0.16" fuel="3.16" electricity="0.00" noise="70.57" route="routeedge2_0" type="traffic4" waiting="0.00" lane="edge2_1" pos="100.45" speed="7.79" angle="90.00" x="500.45" y="-4.80"/>
        <vehicle id="traffic5_0" eclass="HBEFA3/PC_G_EU4" CO2="7351.92" CO="149.78" HC="0.86" NOx="3.23" PMx="0.16" fuel="3.16" electricity="0.00" noise="70.57" route="routeedge2_0" type="traffic5" waiting="0.00" lane="edge2_1" pos="406.57" speed="7.79" angle="90.00" x="806.57" y="-4.80"/>
        <vehicle id="traffic6_0" eclass="HBEFA3/PC_G_EU4" CO2="7361.74" CO="149.92" HC="0.86" NOx="3.23" PMx="0.16" fuel="3.16" electricity="0.00" noise="70.59" route="routeedge2_0" type="traffic6" waiting="0.00" lane="edge2_1" pos="681.58" speed="7.79" angle="90.00" x="1081.58" y="-4.80"/>
        <vehicle id="traffic7_0" eclass="HBEFA3/PC_G_EU4" CO2="7362.49" CO="149.93" HC="0.86" NOx="3.23" PMx="0.16" fuel="3.16" electricity="0.00" noise="70.59" route="routeedge2_0" type="traffic7" waiting="0.00" lane="edge2_1" pos="1698.24" speed="7.79" angle="90.00" x="2098.24" y="-4.80"/>
        <vehicle id="traffic8_0" eclass="HBEFA3/PC_G_EU4" CO2="7360.46" CO="149.90" HC="0.86" NOx="3.23" PMx="0.16" fuel="3.16" electricity="0.00" noise="70.58" route="routeedge2_0" type="traffic8" waiting="0.00" lane="edge2_2" pos="284.56" speed="7.79" angle="90.00" x="684.56" y="-1.60"/>
        <vehicle id="traffic9_0" eclass="HBEFA3/PC_G_EU4" CO2="6399.65" CO="136.34" HC="0.77" NOx="2.79" PMx="0.13" fuel="2.75" electricity="0.00" noise="68.97" route="routeedge2_0" type="traffic9" waiting="0.00" lane="edge2_2" pos="916.50" speed="7.25" angle="90.00" x="1316.50" y="-1.60"/>
    </timestep>
    <timestep time="5.00">
        <vehicle id="flow_00.0" eclass="HBEFA3/PC_G_EU4" CO2="6040.07" CO="80.27" HC="0.52" NOx="2.08" PMx="0.13" fuel="2.60" electricity="0.00" noise="73.90" route="routeedge0_0" type="traffic" waiting="0.00" lane="edge0_0" pos="124.51" speed="29.92" angle="90.00" x="124.51" y="-8.00"/>
        <vehicle id="rl_0" eclass="HBEFA3/PC_G_EU4" CO2="2624.72" CO="164.78" HC="0.81" NOx="1.20" PMx="0.07" fuel="1.13" electricity="0.00" noise="55.94" route="routeedge2_0" type="rl" waiting="4.00" lane="edge2_1" pos="130.69" speed="0.00" angle="90.00" x="530.69" y="-4.80"/>
        <vehicle id="traffic0_0" eclass="HBEFA3/PC_G_EU4" CO2="9066.38" CO="159.14" HC="0.94" NOx="3.97" PMx="0.19" fuel="3.90" electricity="0.00" noise="71.68" route="routeedge2_0" type="traffic0" waiting="0.00" lane="edge2_0" pos="946.42" speed="10.36" angle="90.00" x="1346.42" y="-8.00"/>
        <vehicle id="traffic10_0" eclass="HBEFA3/PC_G_EU4" CO2="9008.60" CO="158.20" HC="0.94" NOx="3.94" PMx="0.19" fuel="3.87" electricity="0.00" noise="71.60" route="routeedge2_0" type="traffic10" waiting="0.00" lane="edge2_2" pos="958.64" speed="10.33" angle="90.00" x="1358.64" y="-1.60"/>
        <vehicle id="traffic11_0" eclass="HBEFA3/PC_G_EU4" CO2="8365.13" CO="147.97" HC="0.87" NOx="3.65" PMx="0.18" fuel="3.60" electricity="0.00" noise="70.77" route="routeedge2_0" type="traffic11" waiting="0.00" lane="edge2_2" pos="1100.50" speed="10.00" angle="90.00" x="1500.50" y="-1.60"/>
        <vehicle id="traffic12_0" eclass="HBEFA3/PC_G_EU4" CO2="9080.45" CO="159.37" HC="0.94" NOx="3.97" PMx="0.19" fuel="3.90" electricity="0.00" noise="71.69" route="routeedge2_0" type="traffic12" waiting="0.00" lane="edge2_2" pos="1151.73" speed="10.36" angle="90.00" x="1551.73" y="-1.60"/>
        <vehicle id="traffic13_0" eclass="HBEFA3/PC_G_EU4" CO2="9079.45" CO="159.36" HC="0.94" NOx="3.97" PMx="0.19" fuel="3.90" electricity="0.00" noise="71.69" route="routeedge2_0" type="traffic13" waiting="0.00" lane="edge2_2" pos="1441.42" speed="10.36" angle="90.00" x="1841.42" y="-1.60"/>
        <vehicle id="traffic14_0" eclass="HBEFA3/PC_G_EU4" CO2="8685.94" CO="152.27" HC="0.90" NOx="3.79" PMx="0.18" fuel="3.73" electricity="0.00" noise="71.14" route="routeedge2_0" type="traffic14" waiting="0.00" lane="edge2_2" pos="1724.35" speed="10.25" angle="90.00" x="2124.35" y="-1.60"/>
        <vehicle id="traffic1_0" eclass="HBEFA3/PC_G_EU4" CO2="9088.33" CO="159.50" HC="0.95" NOx="3.98" PMx="0.19" fuel="3.91" electricity="0.00" noise="71.70" route="routeedge2_0" type="traffic1" waiting="0.00" lane="edge2_0" pos="1171.55" speed="10.37" angle="90.00" x="1571.55" y="-8.00"/>
        <vehicle id="traffic2_0" eclass="HBEFA3/PC_G_EU4" CO2="9093.80" CO="159.59" HC="0.95" NOx="3.98" PMx="0.19" fuel="3.91" electricity="0.00" noise="71.71" route="routeedge2_0" type="traffic2" waiting="0.00" lane="edge2_0" pos="1536.76" speed="10.37" angle="90.00" x="1936.76" y="-8.00"/>
        <vehicle id="traffic3_0" eclass="HBEFA3/PC_G_EU4" CO2="9101.44" CO="159.71" HC="0.95" NOx="3.98" PMx="0.19" fuel="3.91" electricity="0.00" noise="71.72" route="routeedge2_0" type="traffic3" waiting="0.00" lane="edge3_0" pos="13.61" speed="10.37" angle="90.00" x="2413.61" y="-8.00"/>
        <vehicle id="traffic4_0" eclass="HBEFA3/PC_G_EU4" CO2="2822.90" CO="52.70" HC="0.30" NOx="1.08" PMx="0.04" fuel="1.21" electricity="0.00" noise="61.63" route="routeedge2_0" type="traffic4" waiting="0.00" lane="edge2_1" pos="108.59" speed="8.14" angle="90.00" x="508.59" y="-4.80"/>
        <vehicle id="traffic5_0" eclass="HBEFA3/PC_G_EU4" CO2="9078.13" CO="159.33" HC="0.94" NOx="3.97" PMx="0.19" fuel="3.90" electricity="0.00" noise="71.69" route="routeedge2_0" type="traffic5" waiting="0.00" lane="edge2_1" pos="416.93" speed="10.36" angle="90.00" x="816.93" y="-4.80"/>
        <vehicle id="traffic6_0" eclass="HBEFA3/PC_G_EU4" CO2="9099.77" CO="159.69" HC="0.95" NOx="3.98" PMx="0.19" fuel="3.91" electricity="0.00" noise="71.72" route="routeedge2_0" type="traffic6" waiting="0.00" lane="edge2_1" pos="691.95" speed="10.37" angle="90.00" x="1091.95" y="-4.80"/>
        <vehicle id="traffic7_0" eclass="HBEFA3/PC_G_EU4" CO2="9101.44" CO="159.71" HC="0.95" NOx="3.98" PMx="0.19" fuel="3.91" electricity="0.00" noise="71.72" route="routeedge2_0" type="traffic7" waiting="0.00" lane="edge2_1" pos="1708.62" speed="10.37" angle="90.00" x="2108.62" y="-4.80"/>
        <vehicle id="traffic8_0" eclass="HBEFA3/PC_G_EU4" CO2="9096.68" CO="159.64" HC="0.95" NOx="3.98" PMx="0.19" fuel="3.91" electricity="0.00" noise="71.71" route="routeedge2_0" type="traffic8" waiting="0.00" lane="edge2_2" pos="294.94" speed="10.37" angle="90.00" x="694.94" y="-1.60"/>
        <vehicle id="traffic9_0" eclass="HBEFA3/PC_G_EU4" CO2="7318.64" CO="132.36" HC="0.78" NOx="3.17" PMx="0.15" fuel="3.15" electricity="0.00" noise="69.37" route="routeedge2_0" type="traffic9" waiting="0.00" lane="edge2_2" pos="925.88" speed="9.38" angle="90.00" x="1325.88" y="-1.60"/>
    </timestep>
    <timestep time="6.00">
        <vehicle id="flow_00.0" eclass="HBEFA3/PC_G_EU4" CO2="5966.93" CO="78.95" HC="0.51" NOx="2.04" PMx="0.13" fuel="2.56" electricity="0.00" noise="73.90" route="routeedge0_0" type="traffic" waiting="0.00" lane="edge0_0" pos="154.45" speed="29.94" angle="90.00" x="154.45" y="-8.00"/>
        <vehicle id="rl_0" eclass="HBEFA3/PC_G_EU4" CO2="2624.72" CO="164.78" HC="0.81" NOx="1.20" PMx="0.07" fuel="1.13" electricity="0.00" noise="55.94" route="routeedge2_0" type="rl" waiting="5.00" lane="edge2_2" pos="130.69" speed="0.00" angle="90.00" x="530.69" y="-1.60"/>
        <vehicle id="traffic0_0" eclass="HBEFA3/PC_G_EU4" CO2="5225.02" CO="71.20" HC="0.45" NOx="2.13" PMx="0.09" fuel="2.25" electricity="0.00" noise="66.06" route="routeedge2_0" type="traffic0" waiting="0.00" lane="edge2_0" pos="957.81" speed="11.39" angle="90.00" x="1357.81" y="-8.00"/>
        <vehicle id="traffic10_0" eclass="HBEFA3/PC_G_EU4" CO2="10656.49" CO="172.06" HC="1.04" NOx="4.65" PMx="0.23" fuel="4.58" electricity="0.00" noise="72.61" route="routeedge2_0" type="traffic10" waiting="0.00" lane="edge2_2" pos="971.48" speed="12.84" angle="90.00" x="1371.48" y="-1.60"/>
        <vehicle id="traffic11_0" eclass="HBEFA3/PC_G_EU4" CO2="7004.47" CO="106.14" HC="0.65" NOx="2.96" PMx="0.14" fuel="3.01" electricity="0.00" noise="68.30" route="routeedge2_0" type="traffic11" waiting="0.00" lane="edge2_2" pos="1112.10" speed="11.60" angle="90.00" x="1512.10" y="-1.60"/>
        <vehicle id="traffic12_0" eclass="HBEFA3/PC_G_EU4" CO2="7672.35" CO="116.01" HC="0.71" NOx="3.27" PMx="0.15" fuel="3.30" electricity="0.00" noise="69.10" route="routeedge2_0" type="traffic12" waiting="0.00" lane="edge2_2" pos="1163.82" speed="12.10" angle="90.00" x="1563.82" y="-1.60"/>
        <vehicle id="traffic13_0" eclass="HBEFA3/PC_G_EU4" CO2="10791.44" CO="174.42" HC="1.06" NOx="4.72" PMx="0.23" fuel="4.64" electricity="0.00" noise="72.75" route="routeedge2_0" type="traffic13" waiting="0.00" lane="edge2_2" pos="1454.33" speed="12.90" angle="90.00" x="1854.33" y="-1.60"/>
        <vehicle id="traffic14_0" eclass="HBEFA3/PC_G_EU4" CO2="3204.37" CO="35.96" HC="0.24" NOx="1.19" PMx="0.04" fuel="1.38" electricity="0.00" noise="63.40" route="routeedge2_0" type="traffic14" waiting="0.00" lane="edge2_2" pos="1734.99" speed="10.64" angle="90.00" x="2134.99" y="-1.60"/>
        <vehicle id="traffic1_0" eclass="HBEFA3/PC_G_EU4" CO2="10808.63" CO="174.72" HC="1.06" NOx="4.72" PMx="0.23" fuel="4.65" electricity="0.00" noise="72.77" route="routeedge2_0" type="traffic1" waiting="0.00" lane="edge2_0" pos="1184.46" speed="12.91" angle="90.00" x="1584.46" y="-8.00"/>
        <vehicle id="traffic2_0" eclass="HBEFA3/PC_G_EU4" CO2="9692.92" CO="153.67" HC="0.93" NOx="4.21" PMx="0.21" fuel="4.17" electricity="0.00" noise="71.49" route="routeedge2_0" type="traffic2" waiting="0.00" lane="edge2_0" pos="1549.39" speed="12.63" angle="90.00" x="1949.39" y="-8.00"/>