<?xml version="1.0" encoding="UTF-8"?>

<!-- generated on 2020. dec. 8., kedd, 17:21:25 CET by Eclipse SUMO GUI Version 1.6.0
<configuration xmlns:xsi="http://www.w3.org/2001/XMLSchema-instance" xsi:noNamespaceSchemaLocation="http://sumo.dlr.de/xsd/sumoConfiguration.xsd">

    <input>
        <net-file value="/home/akos/workspace/flow/flow/core/kernel/network/debug/cfg/singleagent_autobahn_20201208-1721211607444481.143853.net.xml"/>
        <route-files value="/home/akos/workspace/flow/flow/core/kernel/network/debug/cfg/singleagent_autobahn_20201208-1721211607444481.143853.rou.xml"/>
        <additional-files value="/home/akos/workspace/flow/flow/core/kernel/network/debug/cfg/singleagent_autobahn_20201208-1721211607444481.143853.add.xml"/>
    </input>

    <output>
        <emission-output value="emission_results/singleagent_autobahn_20201208-1721211607444481.143853-emission.xml"/>
    </output>

    <time>
        <begin value="0"/>
        <step-length value="1"/>
    </time>

    <processing>
        <collision.check-junctions value="true"/>
        <time-to-teleport value="-1"/>
        <lanechange.overtake-right value="true"/>
    </processing>

    <report>
        <no-step-log value="true"/>
    </report>

    <traci_server>
        <remote-port value="36121"/>
        <num-clients value="1"/>
    </traci_server>

    <random_number>
        <seed value="43165"/>
    </random_number>

    <gui_only>
        <gui-settings-file value="/home/akos/workspace/flow/flow/core/kernel/network/debug/cfg/singleagent_autobahn_20201208-1721211607444481.143853.gui.cfg"/>
        <tracker-interval value="1"/>
    </gui_only>

</configuration>
-->

<emission-export xmlns:xsi="http://www.w3.org/2001/XMLSchema-instance" xsi:noNamespaceSchemaLocation="http://sumo.dlr.de/xsd/emission_file.xsd">
    <timestep time="0.00"/>
    <timestep time="1.00">
        <vehicle id="flow_00.0" eclass="HBEFA3/PC_G_EU4" CO2="2103.15" CO="51.95" HC="0.28" NOx="0.77" PMx="0.02" fuel="0.90" electricity="0.00" noise="59.57" route="routeedge0_0" type="traffic" waiting="0.00" lane="edge0_0" pos="5.10" speed="6.90" angle="90.00" x="304.71" y="110.20"/>
        <vehicle id="rl_0" eclass="HBEFA3/PC_G_EU4" CO2="2624.72" CO="164.78" HC="0.81" NOx="1.20" PMx="0.07" fuel="1.13" electricity="0.00" noise="55.94" route="routeedge4_0" type="rl" waiting="0.00" lane="edge4_0" pos="222.93" speed="0.00" angle="90.00" x="222.93" y="-1.60"/>
    </timestep>
    <timestep time="2.00">
        <vehicle id="flow_00.0" eclass="HBEFA3/PC_G_EU4" CO2="8499.17" CO="155.62" HC="0.91" NOx="3.72" PMx="0.18" fuel="3.65" electricity="0.00" noise="71.33" route="routeedge0_0" type="traffic" waiting="0.00" lane="edge0_0" pos="14.59" speed="9.49" angle="90.00" x="313.49" y="110.20"/>
        <vehicle id="flow_10.0" eclass="HBEFA3/PC_G_EU4" CO2="2464.39" CO="138.46" HC="0.69" NOx="1.09" PMx="0.05" fuel="1.06" electricity="0.00" noise="56.47" route="routeedge0_0" type="truck" waiting="0.00" lane="edge0_0" pos="5.10" speed="1.35" angle="90.00" x="304.71" y="110.20"/>
        <vehicle id="rl_0" eclass="HBEFA3/PC_G_EU4" CO2="5413.95" CO="165.85" HC="0.88" NOx="2.43" PMx="0.12" fuel="2.33" electricity="0.00" noise="72.57" route="routeedge4_0" type="rl" waiting="0.00" lane="edge4_0" pos="226.41" speed="3.47" angle="90.00" x="226.41" y="-1.60"/>
    </timestep>
    <timestep time="3.00">
        <vehicle id="flow_00.0" eclass="HBEFA3/PC_G_EU4" CO2="10243.61" CO="169.32" HC="1.02" NOx="4.48" PMx="0.22" fuel="4.40" electricity="0.00" noise="72.44" route="routeedge0_0" type="traffic" waiting="0.00" lane="edge0_0" pos="26.64" speed="12.05" angle="90.00" x="324.62" y="110.20"/>
        <vehicle id="flow_00.1" eclass="HBEFA3/PC_G_EU4" CO2="2750.08" CO="0.00" HC="0.00" NOx="0.81" PMx="0.02" fuel="1.18" electricity="0.00" noise="66.96" route="routeedge0_0" type="traffic" waiting="0.00" lane="edge0_1" pos="5.10" speed="17.44" angle="90.00" x="304.71" y="113.40"/>
        <vehicle id="flow_10.0" eclass="HBEFA3/PC_G_EU4" CO2="3142.33" CO="133.14" HC="0.68" NOx="1.38" PMx="0.07" fuel="1.35" electricity="0.00" noise="62.23" route="routeedge0_0" type="truck" waiting="0.00" lane="edge0_0" pos="7.65" speed="2.55" angle="90.00" x="307.07" y="110.20"/>
        <vehicle id="rl_0" eclass="HBEFA3/PC_G_EU4" CO2="6106.46" CO="145.29" HC="0.81" NOx="2.68" PMx="0.13" fuel="2.62" electricity="0.00" noise="69.55" route="routeedge4_0" type="rl" waiting="0.00" lane="edge4_0" pos="232.42" speed="6.01" angle="90.00" x="232.42" y="-1.60"/>
    </timestep>
    <timestep time="4.00">
        <vehicle id="flow_00.0" eclass="HBEFA3/PC_G_EU4" CO2="11911.18" CO="187.21" HC="1.14" NOx="5.20" PMx="0.26" fuel="5.12" electricity="0.00" noise="73.43" route="routeedge0_0" type="traffic" waiting="0.00" lane="edge0_0" pos="41.19" speed="14.56" angle="90.00" x="338.08" y="110.20"/>
        <vehicle id="flow_00.1" eclass="HBEFA3/PC_G_EU4" CO2="14591.94" CO="225.12" HC="1.38" NOx="6.35" PMx="0.33" fuel="6.27" electricity="0.00" noise="74.91" route="routeedge0_0" type="traffic" waiting="0.00" lane="edge0_1" pos="24.78" speed="19.68" angle="90.00" x="322.91" y="113.40"/>
        <vehicle id="flow_10.0" eclass="HBEFA3/PC_G_EU4" CO2="3765.52" CO="124.05" HC="0.65" NOx="1.63" PMx="0.08" fuel="1.62" electricity="0.00" noise="64.02" route="routeedge0_0" type="truck" waiting="0.00" lane="edge0_0" pos="11.66" speed="4.01" angle="90.00" x="310.78" y="110.20"/>
        <vehicle id="rl_0" eclass="HBEFA3/PC_G_EU4" CO2="3048.48" CO="75.53" HC="0.41" NOx="1.23" PMx="0.05" fuel="1.31" electricity="0.00" noise="61.43" route="routeedge4_0" type="rl" waiting="0.00" lane="edge4_0" pos="238.98" speed="6.56" angle="90.00" x="238.98" y="-1.60"/>
    </timestep>
    <timestep time="5.00">
        <vehicle id="flow_00.0" eclass="HBEFA3/PC_G_EU4" CO2="13362.10" CO="206.21" HC="1.27" NOx="5.83" PMx="0.30" fuel="5.74" electricity="0.00" noise="74.25" route="routeedge0_0" type="traffic" waiting="0.00" lane="edge0_0" pos="58.16" speed="16.97" angle="90.00" x="353.76" y="110.20"/>
        <vehicle id="flow_00.1" eclass="HBEFA3/PC_G_EU4" CO2="15026.17" CO="233.29" HC="1.43" NOx="6.50" PMx="0.34" fuel="6.46" electricity="0.00" noise="75.16" route="routeedge0_0" type="traffic" waiting="0.00" lane="edge0_1" pos="46.50" speed="21.72" angle="90.00" x="342.98" y="113.40"/>
        <vehicle id="flow_00.2" eclass="HBEFA3/PC_G_EU4" CO2="3981.63" CO="8.69" HC="0.14" NOx="1.24" PMx="0.06" fuel="1.71" electricity="0.00" noise="70.73" route="routeedge0_0" type="traffic" waiting="0.00" lane="edge0_1" pos="5.10" speed="23.79" angle="90.00" x="304.71" y="113.40"/>
        <vehicle id="flow_10.0" eclass="HBEFA3/PC_G_EU4" CO2="4277.36" CO="114.24" HC="0.62" NOx="1.83" PMx="0.08" fuel="1.84" electricity="0.00" noise="64.77" route="routeedge0_0" type="truck" waiting="0.00" lane="edge0_0" pos="17.16" speed="5.50" angle="90.00" x="315.86" y="110.20"/>
        <vehicle id="rl_0" eclass="HBEFA3/PC_G_EU4" CO2="2171.08" CO="57.03" HC="0.31" NOx="0.81" PMx="0.02" fuel="0.93" electricity="0.00" noise="59.50" route="routeedge4_0" type="rl" waiting="0.00" lane="edge4_0" pos="245.57" speed="6.60" angle="90.00" x="245.57" y="-1.60"/>
    </timestep>
    <timestep time="6.00">
        <vehicle id="flow_00.0" eclass="HBEFA3/PC_G_EU4" CO2="14434.40" CO="222.50" HC="1.37" NOx="6.28" PMx="0.33" fuel="6.20" electricity="0.00" noise="74.82" route="routeedge0_0" type="traffic" waiting="0.00" lane="edge0_0" pos="77.41" speed="19.24" angle="90.00" x="371.55" y="110.20"/>
        <vehicle id="flow_00.1" eclass="HBEFA3/PC_G_EU4" CO2="12637.77" CO="185.69" HC="1.16" NOx="5.34" PMx="0.28" fuel="5.43" electricity="0.00" noise="73.92" route="routeedge0_0" type="traffic" waiting="0.00" lane="edge0_1" pos="69.67" speed="23.17" angle="90.00" x="364.40" y="113.40"/>
        <vehicle id="flow_00.2" eclass="HBEFA3/PC_G_EU4" CO2="0.00" CO="0.00" HC="0.00" NOx="0.00" PMx="0.00" fuel="0.00" electricity="0.00" noise="67.01" route="routeedge0_0" type="traffic" waiting="0.00" lane="edge0_1" pos="25.92" speed="20.82" angle="90.00" x="323.96" y="113.40"/>
        <vehicle id="flow_10.0" eclass="HBEFA3/PC_G_EU4" CO2="4798.29" CO="106.50" HC="0.60" NOx="2.04" PMx="0.09" fuel="2.06" electricity="0.00" noise="65.47" route="routeedge0_0" type="truck" waiting="0.00" lane="edge0_0" pos="24.14" speed="6.98" angle="90.00" x="322.31" y="110.20"/>
        <vehicle id="rl_0" eclass="HBEFA3/PC_G_EU4" CO2="2113.39" CO="55.83" HC="0.30" NOx="0.78" PMx="0.02" fuel="0.91" electricity="0.00" noise="59.37" route="routeedge4_0" type="rl" waiting="0.00" lane="edge4_0" pos="252.17" speed="6.60" angle="90.00" x="252.17" y="-1.60"/>
    </timestep>
    <timestep time="7.00">
        <vehicle id="flow_00.0" eclass="HBEFA3/PC_G_EU4" CO2="14985.92" CO="232.34" HC="1.43" NOx="6.49" PMx="0.34" fuel="6.44" electricity="0.00" noise="75.13" route="routeedge0_0" type="traffic" waiting="0.00" lane="edge0_0" pos="98.73" speed="21.32" angle="90.00" x="391.26" y="110.20"/>
        <vehicle id="flow_00.1" eclass="HBEFA3/PC_G_EU4" CO2="9377.82" CO="120.32" HC="0.78" NOx="3.78" PMx="0.20" fuel="4.03" electricity="0.00" noise="72.62" route="routeedge0_0" type="traffic" waiting="0.00" lane="edge0_1" pos="93.70" speed="24.03" angle="90.00" x="386.61" y="113.40"/>
        <vehicle id="flow_00.2" eclass="HBEFA3/PC_G_EU4" CO2="11402.61" CO="158.99" HC="1.00" NOx="4.78" PMx="0.25" fuel="4.90" electricity="0.00" noise="73.07" route="routeedge0_0" type="traffic" waiting="0.00" lane="edge0_1" pos="48.09" speed="22.17" angle="90.00" x="344.45" y="113.40"/>
        <vehicle id="flow_00.3" eclass="HBEFA3/PC_G_EU4" CO2="2153.39" CO="10.04" HC="0.09" NOx="0.69" PMx="0.01" fuel="0.93" electricity="0.00" noise="62.60" route="routeedge0_0" type="traffic" waiting="0.00" lane="edge0_0" pos="5.10" speed="11.14" angle="90.00" x="304.71" y="110.20"/>
        <vehicle id="flow_10.0" eclass="HBEFA3/PC_G_EU4" CO2="5314.56" CO="100.67" HC="0.58" NOx="2.25" PMx="0.10" fuel="2.28" electricity="0.00" noise="66.13" route="routeedge0_0" type="truck" waiting="0.00" lane="edge0_0" pos="32.58" speed="8.45" angle="90.00" x="330.12" y="110.20"/>
        <vehicle id="rl_0" eclass="HBEFA3/PC_G_EU4" CO2="2110.54" CO="55.77" HC="0.30" NOx="0.78" PMx="0.02" fuel="0.91" electricity="0.00" noise="59.37" route="routeedge4_0" type="rl" waiting="0.00" lane="edge4_0" pos="258.77" speed="6.60" angle="90.00" x="258.77" y="-1.60"/>
    </timestep>
    <timestep time="8.00">
        <vehicle id="flow_00.0" eclass="HBEFA3/PC_G_EU4" CO2="13344.84" CO="199.86" HC="1.24" NOx="5.68" PMx="0.30" fuel="5.74" electricity="0.00" noise="74.26" route="routeedge0_0" type="traffic" waiting="0.00" lane="edge0_0" pos="121.65" speed="22.92" angle="90.00" x="412.45" y="110.20"/>
        <vehicle id="flow_00.1" eclass="HBEFA3/PC_G_EU4" CO2="6965.00" CO="71.79" HC="0.50" NOx="2.64" PMx="0.14" fuel="2.99" electricity="0.00" noise="71.90" route="routeedge0_0" type="traffic" waiting="0.00" lane="edge0_1" pos="118.17" speed="24.47" angle="90.00" x="409.23" y="113.40"/>
        <vehicle id="flow_00.2" eclass="HBEFA3/PC_G_EU4" CO2="8530.00" CO="100.78" HC="0.67" NOx="3.41" PMx="0.18" fuel="3.67" electricity="0.00" noise="71.91" route="routeedge0_0" type="traffic" waiting="0.00" lane="edge0_1" pos="71.05" speed="22.96" angle="90.00" x="365.68" y="113.40"/>
        <vehicle id="flow_00.3" eclass="HBEFA3/PC_G_EU4" CO2="3699.32" CO="37.77" HC="0.26" NOx="1.40" PMx="0.05" fuel="1.59" electricity="0.00" noise="64.42" route="routeedge0_0" type="traffic" waiting="0.00" lane="edge0_0" pos="16.74" speed="11.64" angle="90.00" x="315.47" y="110.20"/>
        <vehicle id="flow_10.0" eclass="HBEFA3/PC_G_EU4" CO2="5793.34" CO="96.19" HC="0.57" NOx="2.44" PMx="0.11" fuel="2.49" electricity="0.00" noise="66.74" route="routeedge0_0" type="truck" waiting="0.00" lane="edge0_0" pos="42.46" speed="9.88" angle="90.00" x="339.25" y="110.20"/>
        <vehicle id="rl_0" eclass="HBEFA3/PC_G_EU4" CO2="2110.40" CO="55.76" HC="0.30" NOx="0.78" PMx="0.02" fuel="0.91" electricity="0.00" noise="59.37" route="routeedge4_0" type="rl" waiting="0.00" lane="edge4_0" pos="265.36" speed="6.60" angle="90.00" x="265.36" y="-1.60"/>
    </timestep>
    <timestep time="9.00">
        <vehicle id="flow_00.0" eclass="HBEFA3/PC_G_EU4" CO2="10012.00" CO="133.06" HC="0.85" NOx="4.09" PMx="0.22" fuel="4.30" electricity="0.00" noise="72.85" route="routeedge0_0" type="traffic" waiting="0.00" lane="edge0_0" pos="145.54" speed="23.89" angle="90.00" x="434.53" y="110.20"/>
        <vehicle id="flow_00.1" eclass="HBEFA3/PC_G_EU4" CO2="5558.58" CO="43.43" HC="0.34" NOx="1.97" PMx="0.10" fuel="2.39" electricity="0.00" noise="71.57" route="routeedge0_0" type="traffic" waiting="0.00" lane="edge0_1" pos="142.84" speed="24.68" angle="90.00" x="432.04" y="113.40"/>
        <vehicle id="flow_00.2" eclass="HBEFA3/PC_G_EU4" CO2="5989.60" CO="49.06" HC="0.37" NOx="2.20" PMx="0.11" fuel="2.57" electricity="0.00" noise="71.10" route="routeedge0_0" type="traffic" waiting="0.00" lane="edge0_1" pos="94.36" speed="23.31" angle="90.00" x="387.23" y="113.40"/>
        <vehicle id="flow_00.3" eclass="HBEFA3/PC_G_EU4" CO2="3611.24" CO="32.49" HC="0.23" NOx="1.35" PMx="0.05" fuel="1.55" electricity="0.00" noise="64.54" route="routeedge0_0" type="traffic" waiting="0.00" lane="edge0_1" pos="28.83" speed="12.09" angle="90.00" x="326.64" y="113.40"/>
        <vehicle id="flow_00.4" eclass="HBEFA3/PC_G_EU4" CO2="2722.54" CO="0.00" HC="0.00" NOx="0.80" PMx="0.02" fuel="1.17" electricity="0.00" noise="66.83" route="routeedge0_0" type="traffic" waiting="0.00" lane="edge0_0" pos="5.10" speed="17.25" angle="90.00" x="304.71" y="110.20"/>
        <vehicle id="flow_10.0" eclass="HBEFA3/PC_G_EU4" CO2="6189.02" CO="92.18" HC="0.57" NOx="2.59" PMx="0.12" fuel="2.66" electricity="0.00" noise="67.26" route="routeedge0_0" type="truck" waiting="0.00" lane="edge0_0" pos="53.71" speed="11.25" angle="90.00" x="349.65" y="110.20"/>
        <vehicle id="rl_0" eclass="HBEFA3/PC_G_EU4" CO2="2110.39" CO="55.76" HC="0.30" NOx="0.78" PMx="0.02" fuel="0.91" electricity="0.00" noise="59.37" route="routeedge4_0" type="rl" waiting="0.00" lane="edge4_0" pos="271.96" speed="6.60" angle="90.00" x="271.96" y="-1.60"/>
    </timestep>
    <timestep time="10.00">
        <vehicle id="flow_00.0" eclass="HBEFA3/PC_G_EU4" CO2="7381.33" CO="80.17" HC="0.55" NOx="2.83" PMx="0.15" fuel="3.17" electricity="0.00" noise="72.02" route="routeedge0_0" type="traffic" waiting="0.00" lane="edge0_0" pos="169.94" speed="24.40" angle="90.00" x="457.09" y="110.20"/>
        <vehicle id="flow_00.1" eclass="HBEFA3/PC_G_EU4" CO2="4848.45" CO="29.10" HC="0.25" NOx="1.63" PMx="0.08" fuel="2.08" electricity="0.00" noise="71.42" route="routeedge0_0" type="traffic" waiting="0.00" lane="edge0_1" pos="167.62" speed="24.77" angle="90.00" x="454.94" y="113.40"/>
        <vehicle id="flow_00.2" eclass="HBEFA3/PC_G_EU4" CO2="4918.01" CO="27.31" HC="0.25" NOx="1.69" PMx="0.08" fuel="2.11" electricity="0.00" noise="70.84" route="routeedge0_0" type="traffic" waiting="0.00" lane="edge0_1" pos="117.84" speed="23.48" angle="90.00" x="408.93" y="113.40"/>
        <vehicle id="flow_00.3" eclass="HBEFA3/PC_G_EU4" CO2="11914.12" CO="187.09" HC="1.14" NOx="5.20" PMx="0.26" fuel="5.12" electricity="0.00" noise="73.42" route="routeedge0_0" type="traffic" waiting="0.00" lane="edge0_1" pos="43.41" speed="14.59" angle="90.00" x="340.13" y="113.40"/>
        <vehicle id="flow_00.4" eclass="HBEFA3/PC_G_EU4" CO2="0.00" CO="0.00" HC="0.00" NOx="0.00" PMx="0.00" fuel="0.00" electricity="0.00" noise="65.57" route="routeedge0_0" type="traffic" waiting="0.00" lane="edge0_0" pos="21.82" speed="16.72" angle="90.00" x="320.17" y="110.20"/>
        <vehicle id="flow_10.0" eclass="HBEFA3/PC_G_EU4" CO2="6450.43" CO="87.58" HC="0.55" NOx="2.68" PMx="0.12" fuel="2.77" electricity="0.00" noise="67.65" route="routeedge0_0" type="truck" waiting="0.00" lane="edge0_0" pos="66.25" speed="12.54" angle="90.00" x="361.24" y="110.20"/>
        <vehicle id="rl_0" eclass="HBEFA3/PC_G_EU4" CO2="2110.39" CO="55.76" HC="0.30" NOx="0.78" PMx="0.02" fuel="0.91" electricity="0.00" noise="59.37" route="routeedge4_0" type="rl" waiting="0.00" lane="edge4_0" pos="278.56" speed="6.60" angle="90.00" x="278.56" y="-1.60"/>
    </timestep>
    <timestep time="11.00">
        <vehicle id="flow_00.0" eclass="HBEFA3/PC_G_EU4" CO2="5783.20" CO="47.97" HC="0.36" NOx="2.07" PMx="0.11" fuel="2.49" electricity="0.00" noise="71.62" route="routeedge0_0" type="traffic" waiting="0.00" lane="edge0_0" pos="194.59" speed="24.65" angle="90.00" x="479.87" y="110.20"/>
        <vehicle id="flow_00.1" eclass="HBEFA3/PC_G_EU4" CO2="4516.26" CO="22.39" HC="0.21" NOx="1.47" PMx="0.08" fuel="1.94" electricity="0.00" noise="71.35" route="routeedge0_0" type="traffic" waiting="0.00" lane="edge0_1" pos="192.44" speed="24.82" angle="90.00" x="477.88" y="113.40"/>
        <vehicle id="flow_00.2" eclass="HBEFA3/PC_G_EU4" CO2="4497.49" CO="18.84" HC="0.20" NOx="1.49" PMx="0.07" fuel="1.93" electricity="0.00" noise="70.76" route="routeedge0_0" type="traffic" waiting="0.00" lane="edge0_1" pos="141.41" speed="23.57" angle="90.00" x="430.71" y="113.40"/>
        <vehicle id="flow_00.3" eclass="HBEFA3/PC_G_EU4" CO2="13361.24" CO="206.10" HC="1.26" NOx="5.83" PMx="0.30" fuel="5.74" electricity="0.00" noise="74.24" route="routeedge0_0" type="traffic" waiting="0.00" lane="edge0_1" pos="60.41" speed="17.00" angle="90.00" x="355.84" y="113.40"/>
        <vehicle id="flow_00.4" eclass="HBEFA3/PC_G_EU4" CO2="3504.94" CO="3.49" HC="0.10" NOx="1.18" PMx="0.04" fuel="1.51" electricity="0.00" noise="67.00" route="routeedge0_0" type="traffic" waiting="0.00" lane="edge0_0" pos="38.72" speed="16.91" angle="90.00" x="335.79" y="110.20"/>
        <vehicle id="flow_00.5" eclass="HBEFA3/PC_G_EU4" CO2="3159.24" CO="0.00" HC="0.03" NOx="0.94" PMx="0.03" fuel="1.36" electricity="0.00" noise="68.52" route="routeedge0_0" type="traffic" waiting="0.00" lane="edge0_0" pos="5.10" speed="19.94" angle="90.00" x="304.71" y="110.20"/>
        <vehicle id="flow_10.0" eclass="HBEFA3/PC_G_EU4" CO2="6533.81" CO="81.40" HC="0.53" NOx="2.69" PMx="0.12" fuel="2.81" electricity="0.00" noise="67.91" route="routeedge0_0" type="truck" waiting="0.00" lane="edge0_0" pos="79.97" speed="13.72" angle="90.00" x="373.92" y="110.20"/>
        <vehicle id="rl_0" eclass="HBEFA3/PC_G_EU4" CO2="2110.39" CO="55.76" HC="0.30" NOx="0.78" PMx="0.02" fuel="0.91" electricity="0.00" noise="59.37" route="routeedge4_0" type="rl" waiting="0.00" lane="edge4_0" pos="285.16" speed="6.60" angle="90.00" x="285.16" y="-1.60"/>
    </timestep>
    <timestep time="12.00">
        <vehicle id="flow_00.0" eclass="HBEFA3/PC_G_EU4" CO2="4957.08" CO="31.29" HC="0.27" NOx="1.68" PMx="0.09" fuel="2.13" electricity="0.00" noise="71.44" route="routeedge0_0" type="traffic" waiting="0.00" lane="edge1_1" pos="10.50" speed="24.76" angle="90.00" x="504.35" y="110.20"/>
        <vehicle id="flow_00.1" eclass="HBEFA3/PC_G_EU4" CO2="4366.50" CO="19.37" HC="0.20" NOx="1.40" PMx="0.07" fuel="1.88" electricity="0.00" noise="71.32" route="routeedge0_0" type="traffic" waiting="0.00" lane="edge1_2" pos="8.42" speed="24.84" angle="90.00" x="502.25" y="113.40"/>
        <vehicle id="flow_00.2" eclass="HBEFA3/PC_G_EU4" CO2="4319.65" CO="15.30" HC="0.18" NOx="1.41" PMx="0.07" fuel="1.86" electricity="0.00" noise="70.74" route="routeedge0_0" type="traffic" waiting="0.00" lane="edge0_1" pos="165.04" speed="23.63" angle="90.00" x="452.56" y="113.40"/>
        <vehicle id="flow_00.3" eclass="HBEFA3/PC_G_EU4" CO2="14358.10" CO="220.91" HC="1.36" NOx="6.24" PMx="0.32" fuel="6.17" electricity="0.00" noise="74.76" route="routeedge0_0" type="traffic" waiting="0.00" lane="edge0_1" pos="79.66" speed="19.25" angle="90.00" x="373.64" y="113.40"/>
        <vehicle id="flow_00.4" eclass="HBEFA3/PC_G_EU4" CO2="3805.80" CO="8.84" HC="0.13" NOx="1.32" PMx="0.05" fuel="1.64" electricity="0.00" noise="67.29" route="routeedge0_0" type="traffic" waiting="0.00" lane="edge0_0" pos="55.88" speed="17.15" angle="90.00" x="351.65" y="110.20"/>
        <vehicle id="flow_00.5" eclass="HBEFA3/PC_G_EU4" CO2="0.00" CO="0.00" HC="0.00" NOx="0.00" PMx="0.00" fuel="0.00" electricity="0.00" noise="63.98" route="routeedge0_0" type="traffic" waiting="0.00" lane="edge0_0" pos="21.81" speed="16.71" angle="90.00" x="320.16" y="110.20"/>
        <vehicle id="flow_10.0" eclass="HBEFA3/PC_G_EU4" CO2="6418.88" CO="73.03" HC="0.49" NOx="2.61" PMx="0.12" fuel="2.76" electricity="0.00" noise="68.04" route="routeedge0_0" type="truck" waiting="0.00" lane="edge0_0" pos="94.73" speed="14.76" angle="90.00" x="387.57" y="110.20"/>
        <vehicle id="rl_0" eclass="HBEFA3/PC_G_EU4" CO2="2110.39" CO="55.76" HC="0.30" NOx="0.78" PMx="0.02" fuel="0.91" electricity="0.00" noise="59.37" route="routeedge4_0" type="rl" waiting="0.00" lane="edge4_0" pos="291.75" speed="6.60" angle="90.00" x="291.75" y="-1.60"/>
    </timestep>
    <timestep time="13.00">
        <vehicle id="flow_00.0" eclass="HBEFA3/PC_G_EU4" CO2="4565.99" CO="23.40" HC="0.22" NOx="1.50" PMx="0.08" fuel="1.96" electricity="0.00" noise="71.36" route="routeedge0_0" type="traffic" waiting="0.00" lane="edge1_1" pos="35.31" speed="24.81" angle="90.00" x="529.47" y="110.20"/>
        <vehicle id="flow_00.1" eclass="HBEFA3/PC_G_EU4" CO2="4300.14" CO="18.03" HC="0.19" NOx="1.37" PMx="0.07" fuel="1.85" electricity="0.00" noise="71.31" route="routeedge0_0" type="traffic" waiting="0.00" lane="edge1_2" pos="33.27" speed="24.84" angle="90.00" x="527.40" y="113.40"/>
        <vehicle id="flow_00.2" eclass="HBEFA3/PC_G_EU4" CO2="4239.39" CO="13.74" HC="0.17" NOx="1.37" PMx="0.07" fuel="1.82" electricity="0.00" noise="70.74" route="routeedge0_0" type="traffic" waiting="0.00" lane="edge0_1" pos="188.72" speed="23.68" angle="90.00" x="474.44" y="113.40"/>
        <vehicle id="flow_00.3" eclass="HBEFA3/PC_G_EU4" CO2="14622.07" CO="224.85" HC="1.38" NOx="6.32" PMx="0.33" fuel="6.29" electricity="0.00" noise="74.89" route="routeedge0_0" type="traffic" waiting="0.00" lane="edge0_1" pos="100.94" speed="21.27" angle="90.00" x="393.30" y="113.40"/>
        <vehicle id="flow_00.4" eclass="HBEFA3/PC_G_EU4" CO2="4082.67" CO="13.60" HC="0.16" NOx="1.44" PMx="0.06" fuel="1.75" electricity="0.00" noise="67.58" route="routeedge0_0" type="traffic" waiting="0.00" lane="edge0_0" pos="73.32" speed="17.44" angle="90.00" x="367.77" y="110.20"/>
        <vehicle id="flow_00.5" eclass="HBEFA3/PC_G_EU4" CO2="7958.86" CO="92.29" HC="0.61" NOx="3.26" PMx="0.16" fuel="3.42" electricity="0.00" noise="69.99" route="routeedge0_0" type="traffic" waiting="0.00" lane="edge0_0" pos="39.64" speed="17.82" angle="90.00" x="336.64" y="110.20"/>
        <vehicle id="flow_00.6" eclass="HBEFA3/PC_G_EU4" CO2="4222.63" CO="16.15" HC="0.18" NOx="1.33" PMx="0.07" fuel="1.82" electricity="0.00" noise="71.25" route="routeedge0_0" type="traffic" waiting="0.00" lane="edge0_1" pos="5.10" speed="24.75" angle="90.00" x="304.71" y="113.40"/>
        <vehicle id="flow_10.0" eclass="HBEFA3/PC_G_EU4" CO2="6120.71" CO="62.49" HC="0.43" NOx="2.45" PMx="0.11" fuel="2.63" electricity="0.00" noise="68.06" route="routeedge0_0" type="truck" waiting="0.00" lane="edge0_0" pos="110.38" speed="15.64" angle="90.00" x="402.03" y="110.20"/>
        <vehicle id="rl_0" eclass="HBEFA3/PC_G_EU4" CO2="2110.39" CO="55.76" HC="0.30" NOx="0.78" PMx="0.02" fuel="0.91" electricity="0.00" noise="59.37" route="routeedge4_0" type="rl" waiting="0.00" lane="edge4_0" pos="298.35" speed="6.60" angle="90.00" x="298.35" y="-1.60"/>
    </timestep>
    <timestep time="14.00">
        <vehicle id="flow_00.0" eclass="HBEFA3/PC_G_EU4" CO2="4388.70" CO="19.81" HC="0.20" NOx="1.41" PMx="0.07" fuel="1.89" electricity="0.00" noise="71.33" route="routeedge0_0" type="traffic" waiting="0.00" lane="edge1_1" pos="60.14" speed="24.83" angle="90.00" x="554.62" y="110.20"/>
        <vehicle id="flow_00.1" eclass="HBEFA3/PC_G_EU4" CO2="4270.95" CO="17.44" HC="0.19" NOx="1.36" PMx="0.07" fuel="1.84" electricity="0.00" noise="71.30" route="routeedge0_0" type="traffic" waiting="0.00" lane="edge1_2" pos="58.11" speed="24.85" angle="90.00" x="552.56" y="113.40"/>
        <vehicle id="flow_00.2" eclass="HBEFA3/PC_G_EU4" CO2="4201.09" CO="13.04" HC="0.16" NOx="1.35" PMx="0.07" fuel="1.81" electricity="0.00" noise="70.75" route="routeedge0_0" type="traffic" waiting="0.00" lane="edge1_2" pos="3.59" speed="23.72" angle="90.00" x="497.35" y="113.40"/>
        <vehicle id="flow_00.3" eclass="HBEFA3/PC_G_EU4" CO2="12934.36" CO="191.25" HC="1.19" NOx="5.49" PMx="0.29" fuel="5.56" electricity="0.00" noise="74.02" route="routeedge0_0" type="traffic" waiting="0.00" lane="edge0_1" pos="123.75" speed="22.82" angle="90.00" x="414.39" y="113.40"/>
        <vehicle id="flow_00.4" eclass="HBEFA3/PC_G_EU4" CO2="4146.97" CO="14.05" HC="0.16" NOx="1.46" PMx="0.06" fuel="1.78" electricity="0.00" noise="67.76" route="routeedge0_0" type="traffic" waiting="0.00" lane="edge0_0" pos="91.06" speed="17.74" angle="90.00" x="384.17" y="110.20"/>
        <vehicle id="flow_00.5" eclass="HBEFA3/PC_G_EU4" CO2="5996.93" CO="50.28" HC="0.37" NOx="2.32" PMx="0.11" fuel="2.58" electricity="0.00" noise="69.03" route="routeedge0_0" type="traffic" waiting="0.00" lane="edge0_0" pos="58.10" speed="18.47" angle="90.00" x="353.71" y="110.20"/>
        <vehicle id="flow_00.6" eclass="HBEFA3/PC_G_EU4" CO2="0.00" CO="0.00" HC="0.00" NOx="0.00" PMx="0.00" fuel="0.00" electricity="0.00" noise="69.79" route="routeedge0_0" type="traffic" waiting="0.00" lane="edge0_1" pos="29.03" speed="23.93" angle="90.00" x="326.83" y="113.40"/>
        <vehicle id="flow_10.0" eclass="HBEFA3/PC_G_EU4" CO2="5689.20" CO="50.50" HC="0.37" NOx="2.22" PMx="0.10" fuel="2.45" electricity="0.00" noise="68.02" route="routeedge0_0" type="truck" waiting="0.00" lane="edge0_0" pos="126.74" speed="16.37" angle="90.00" x="417.15" y="110.20"/>
        <vehicle id="rl_0" eclass="HBEFA3/PC_G_EU4" CO2="2110.39" CO="55.76" HC="0.30" NOx="0.78" PMx="0.02" fuel="0.91" electricity="0.00" noise="59.37" route="routeedge4_0" type="rl" waiting="0.00" lane="edge5_0" pos="4.11" speed="6.60" angle="63.09" x="304.10" y="0.51"/>
    </timestep>
    <timestep time="15.00">
        <vehicle id="flow_00.0" eclass="HBEFA3/PC_G_EU4" CO2="4309.93" CO="18.22" HC="0.19" NOx="1.37" PMx="0.07" fuel="1.85" electricity="0.00" noise="71.31" route="routeedge0_0" type="traffic" waiting="0.00" lane="edge1_1" pos="84.99" speed="24.84" angle="90.00" x="579.77" y="110.20"/>
        <vehicle id="flow_00.1" eclass="HBEFA3/PC_G_EU4" CO2="4258.15" CO="17.18" HC="0.18" NOx="1.35" PMx="0.07" fuel="1.83" electricity="0.00" noise="71.30" route="routeedge0_0" type="traffic" waiting="0.00" lane="edge1_2" pos="82.96" speed="24.85" angle="90.00" x="577.73" y="113.40"/>
        <vehicle id="flow_00.2" eclass="HBEFA3/PC_G_EU4" CO2="4181.47" CO="12.71" HC="0.16" NOx="1.34" PMx="0.06" fuel="1.80" electricity="0.00" noise="70.76" route="routeedge0_0" type="traffic" waiting="0.00" lane="edge1_2" pos="27.34" speed="23.75" angle="90.00" x="521.40" y="113.40"/>
        <vehicle id="flow_00.3" eclass="HBEFA3/PC_G_EU4" CO2="8896.01" CO="109.50" HC="0.72" NOx="3.57" PMx="0.19" fuel="3.82" electricity="0.00" noise="72.29" route="routeedge0_0" type="traffic" waiting="0.00" lane="edge0_1" pos="147.38" speed="23.62" angle="90.00" x="436.23" y="113.40"/>
        <vehicle id="flow_00.4" eclass="HBEFA3/PC_G_EU4" CO2="4047.45" CO="11.29" HC="0.15" NOx="1.41" PMx="0.05" fuel="1.74" electricity="0.00" noise="67.84" route="routeedge0_0" type="traffic" waiting="0.00" lane="edge0_1" pos="109.06" speed="18.00" angle="90.00" x="400.81" y="113.40"/>
        <vehicle id="flow_00.5" eclass="HBEFA3/PC_G_EU4" CO2="0.00" CO="0.00" HC="0.00" NOx="0.00" PMx="0.00" fuel="0.00" electricity="0.00" noise="67.56" route="routeedge0_0" type="traffic" waiting="0.00" lane="edge0_0" pos="76.55" speed="18.45" angle="90.00" x="370.76" y="110.20"/>
        <vehicle id="flow_00.6" eclass="HBEFA3/PC_G_EU4" CO2="4363.18" CO="16.97" HC="0.18" NOx="1.42" PMx="0.07" fuel="1.88" electricity="0.00" noise="70.92" route="routeedge0_0" type="traffic" waiting="0.00" lane="edge0_1" pos="53.01" speed="23.98" angle="90.00" x="349.00" y="113.40"/>
        <vehicle id="flow_00.7" eclass="HBEFA3/PC_G_EU4" CO2="4556.19" CO="27.40" HC="0.24" NOx="1.46" PMx="0.08" fuel="1.96" electricity="0.00" noise="71.90" route="routeedge0_0" type="traffic" waiting="0.00" lane="edge0_0" pos="5.10" speed="25.99" angle="90.00" x="304.71" y="110.20"/>
        <vehicle id="flow_10.0" eclass="HBEFA3/PC_G_EU4" CO2="5193.91" CO="38.16" HC="0.30" NOx="1.98" PMx="0.08" fuel="2.23" electricity="0.00" noise="67.94" route="routeedge0_0" type="truck" waiting="0.00" lane="edge0_0" pos="143.68" speed="16.94" angle="90.00" x="432.81" y="110.20"/>
        <vehicle id="rl_0" eclass="HBEFA3/PC_G_EU4" CO2="2110.39" CO="55.76" HC="0.30" NOx="0.78" PMx="0.02" fuel="0.91" electricity="0.00" noise="59.37" route="routeedge4_0" type="rl" waiting="0.00" lane="edge5_0" pos="10.70" speed="6.60" angle="60.10" x="309.39" y="3.55"/>
    </timestep>
    <timestep time="16.00">
        <vehicle id="flow_00.0" eclass="HBEFA3/PC_G_EU4" CO2="4275.24" CO="17.52" HC="0.19" NOx="1.36" PMx="0.07" fuel="1.84" electricity="0.00" noise="71.30" route="routeedge0_0" type="traffic" waiting="0.00" lane="edge1_1" pos="109.83" speed="24.85" angle="90.00" x="604.93" y="110.20"/>
        <vehicle id="flow_00.1" eclass="HBEFA3/PC_G_EU4" CO2="4252.55" CO="17.06" HC="0.18" NOx="1.35" PMx="0.07" fuel="1.83" electricity="0.00" noise="71.30" route="routeedge0_0" type="traffic" waiting="0.00" lane="edge1_2" pos="107.81" speed="24.85" angle="90.00" x="602.89" y="113.40"/>