<?xml version="1.0" encoding="UTF-8"?>

<!-- generated on Wed Apr  8 23:05:34 2020 by Eclipse SUMO Version 1.5.0
<configuration xmlns:xsi="http://www.w3.org/2001/XMLSchema-instance" xsi:noNamespaceSchemaLocation="http://sumo.dlr.de/xsd/sumoConfiguration.xsd">

    <input>
        <net-file value="/home/akos/workspace/flow/flow/core/kernel/network/debug/cfg/singleagent_autobahn_20200408-2305281586379928.480471.net.xml"/>
        <route-files value="/home/akos/workspace/flow/flow/core/kernel/network/debug/cfg/singleagent_autobahn_20200408-2305281586379928.480471.rou.xml"/>
        <additional-files value="/home/akos/workspace/flow/flow/core/kernel/network/debug/cfg/singleagent_autobahn_20200408-2305281586379928.480471.add.xml"/>
    </input>

    <output>
        <emission-output value="emission_results/singleagent_autobahn_20200408-2305281586379928.480471-emission.xml"/>
    </output>

    <time>
        <begin value="0"/>
        <step-length value="1"/>
    </time>

    <processing>
        <collision.check-junctions value="true"/>
        <time-to-teleport value="-1"/>
    </processing>

    <report>
        <no-step-log value="true"/>
    </report>

    <traci_server>
        <remote-port value="43911"/>
        <num-clients value="1"/>
    </traci_server>

    <random_number>
        <seed value="32595"/>
    </random_number>

    <gui_only>
        <gui-settings-file value="/home/akos/workspace/flow/flow/core/kernel/network/debug/cfg/singleagent_autobahn_20200408-2305281586379928.480471.gui.cfg"/>
        <tracker-interval value="1"/>
    </gui_only>

</configuration>
-->

<emission-export xmlns:xsi="http://www.w3.org/2001/XMLSchema-instance" xsi:noNamespaceSchemaLocation="http://sumo.dlr.de/xsd/emission_file.xsd">
    <timestep time="0.00"/>
    <timestep time="1.00">
        <vehicle id="flow_00.0" eclass="HBEFA3/PC_G_EU4" CO2="3713.74" CO="1.20" HC="0.10" NOx="1.14" PMx="0.05" fuel="1.60" electricity="0.00" noise="70.10" route="routeedge0_0" type="traffic" waiting="0.00" lane="edge0_0" pos="5.10" speed="22.65" angle="90.00" x="5.10" y="-8.00"/>
        <vehicle id="rl_0" eclass="HBEFA3/PC_G_EU4" CO2="2624.72" CO="164.78" HC="0.81" NOx="1.20" PMx="0.07" fuel="1.13" electricity="0.00" noise="55.94" route="routeedge2_0" type="rl" waiting="0.00" lane="edge2_0" pos="64.67" speed="0.00" angle="90.00" x="464.67" y="-8.00"/>
        <vehicle id="traffic0_0" eclass="HBEFA3/PC_G_EU4" CO2="2624.72" CO="164.78" HC="0.81" NOx="1.20" PMx="0.07" fuel="1.13" electricity="0.00" noise="55.94" route="routeedge2_0" type="traffic0" waiting="0.00" lane="edge2_0" pos="497.78" speed="0.00" angle="90.00" x="897.78" y="-8.00"/>
        <vehicle id="traffic10_0" eclass="HBEFA3/PC_G_EU4" CO2="2624.72" CO="164.78" HC="0.81" NOx="1.20" PMx="0.07" fuel="1.13" electricity="0.00" noise="55.94" route="routeedge2_0" type="traffic10" waiting="0.00" lane="edge2_2" pos="39.01" speed="0.00" angle="90.00" x="439.01" y="-1.60"/>
        <vehicle id="traffic11_0" eclass="HBEFA3/PC_G_EU4" CO2="2624.72" CO="164.78" HC="0.81" NOx="1.20" PMx="0.07" fuel="1.13" electricity="0.00" noise="55.94" route="routeedge2_0" type="traffic11" waiting="0.00" lane="edge2_2" pos="200.50" speed="0.00" angle="90.00" x="600.50" y="-1.60"/>
        <vehicle id="traffic12_0" eclass="HBEFA3/PC_G_EU4" CO2="2624.72" CO="164.78" HC="0.81" NOx="1.20" PMx="0.07" fuel="1.13" electricity="0.00" noise="55.94" route="routeedge2_0" type="traffic12" waiting="0.00" lane="edge2_2" pos="900.10" speed="0.00" angle="90.00" x="1300.10" y="-1.60"/>
        <vehicle id="traffic13_0" eclass="HBEFA3/PC_G_EU4" CO2="2624.72" CO="164.78" HC="0.81" NOx="1.20" PMx="0.07" fuel="1.13" electricity="0.00" noise="55.94" route="routeedge2_0" type="traffic13" waiting="0.00" lane="edge2_2" pos="1062.81" speed="0.00" angle="90.00" x="1462.81" y="-1.60"/>
        <vehicle id="traffic14_0" eclass="HBEFA3/PC_G_EU4" CO2="2624.72" CO="164.78" HC="0.81" NOx="1.20" PMx="0.07" fuel="1.13" electricity="0.00" noise="55.94" route="routeedge2_0" type="traffic14" waiting="0.00" lane="edge2_2" pos="1318.62" speed="0.00" angle="90.00" x="1718.62" y="-1.60"/>
        <vehicle id="traffic1_0" eclass="HBEFA3/PC_G_EU4" CO2="2624.72" CO="164.78" HC="0.81" NOx="1.20" PMx="0.07" fuel="1.13" electricity="0.00" noise="55.94" route="routeedge2_0" type="traffic1" waiting="0.00" lane="edge2_0" pos="1149.59" speed="0.00" angle="90.00" x="1549.59" y="-8.00"/>
        <vehicle id="traffic2_0" eclass="HBEFA3/PC_G_EU4" CO2="2624.72" CO="164.78" HC="0.81" NOx="1.20" PMx="0.07" fuel="1.13" electricity="0.00" noise="55.94" route="routeedge2_0" type="traffic2" waiting="0.00" lane="edge2_0" pos="1190.08" speed="0.00" angle="90.00" x="1590.08" y="-8.00"/>
        <vehicle id="traffic3_0" eclass="HBEFA3/PC_G_EU4" CO2="2624.72" CO="164.78" HC="0.81" NOx="1.20" PMx="0.07" fuel="1.13" electricity="0.00" noise="55.94" route="routeedge2_0" type="traffic3" waiting="0.00" lane="edge2_0" pos="1719.16" speed="0.00" angle="90.00" x="2119.16" y="-8.00"/>
        <vehicle id="traffic4_0" eclass="HBEFA3/PC_G_EU4" CO2="2624.72" CO="164.78" HC="0.81" NOx="1.20" PMx="0.07" fuel="1.13" electricity="0.00" noise="55.94" route="routeedge2_0" type="traffic4" waiting="0.00" lane="edge2_1" pos="325.72" speed="0.00" angle="90.00" x="725.72" y="-4.80"/>
        <vehicle id="traffic5_0" eclass="HBEFA3/PC_G_EU4" CO2="2624.72" CO="164.78" HC="0.81" NOx="1.20" PMx="0.07" fuel="1.13" electricity="0.00" noise="55.94" route="routeedge2_0" type="traffic5" waiting="0.00" lane="edge2_1" pos="388.38" speed="0.00" angle="90.00" x="788.38" y="-4.80"/>
        <vehicle id="traffic6_0" eclass="HBEFA3/PC_G_EU4" CO2="2624.72" CO="164.78" HC="0.81" NOx="1.20" PMx="0.07" fuel="1.13" electricity="0.00" noise="55.94" route="routeedge2_0" type="traffic6" waiting="0.00" lane="edge2_1" pos="540.19" speed="0.00" angle="90.00" x="940.19" y="-4.80"/>
        <vehicle id="traffic7_0" eclass="HBEFA3/PC_G_EU4" CO2="2624.72" CO="164.78" HC="0.81" NOx="1.20" PMx="0.07" fuel="1.13" electricity="0.00" noise="55.94" route="routeedge2_0" type="traffic7" waiting="0.00" lane="edge2_1" pos="1054.77" speed="0.00" angle="90.00" x="1454.77" y="-4.80"/>
        <vehicle id="traffic8_0" eclass="HBEFA3/PC_G_EU4" CO2="2624.72" CO="164.78" HC="0.81" NOx="1.20" PMx="0.07" fuel="1.13" electricity="0.00" noise="55.94" route="routeedge2_0" type="traffic8" waiting="0.00" lane="edge2_1" pos="1093.31" speed="0.00" angle="90.00" x="1493.31" y="-4.80"/>
        <vehicle id="traffic9_0" eclass="HBEFA3/PC_G_EU4" CO2="2624.72" CO="164.78" HC="0.81" NOx="1.20" PMx="0.07" fuel="1.13" electricity="0.00" noise="55.94" route="routeedge2_0" type="traffic9" waiting="0.00" lane="edge2_1" pos="1438.77" speed="0.00" angle="90.00" x="1838.77" y="-4.80"/>
    </timestep>
    <timestep time="2.00">
        <vehicle id="flow_00.0" eclass="HBEFA3/PC_G_EU4" CO2="14578.88" CO="228.11" HC="1.40" NOx="6.23" PMx="0.34" fuel="6.27" electricity="0.00" noise="75.13" route="routeedge0_0" type="traffic" waiting="0.00" lane="edge0_0" pos="29.41" speed="24.31" angle="90.00" x="29.41" y="-8.00"/>
        <vehicle id="rl_0" eclass="HBEFA3/PC_G_EU4" CO2="5453.81" CO="166.33" HC="0.89" NOx="2.44" PMx="0.12" fuel="2.34" electricity="0.00" noise="72.68" route="routeedge2_0" type="rl" waiting="0.00" lane="edge2_1" pos="68.17" speed="3.50" angle="90.00" x="468.17" y="-4.80"/>
        <vehicle id="traffic0_0" eclass="HBEFA3/PC_G_EU4" CO2="4102.41" CO="152.07" HC="0.79" NOx="1.83" PMx="0.09" fuel="1.76" electricity="0.00" noise="68.38" route="routeedge2_0" type="traffic0" waiting="0.00" lane="edge2_0" pos="500.38" speed="2.60" angle="90.00" x="900.38" y="-8.00"/>
        <vehicle id="traffic10_0" eclass="HBEFA3/PC_G_EU4" CO2="4100.56" CO="152.05" HC="0.79" NOx="1.83" PMx="0.09" fuel="1.76" electricity="0.00" noise="68.38" route="routeedge2_0" type="traffic10" waiting="0.00" lane="edge2_2" pos="41.61" speed="2.60" angle="90.00" x="441.61" y="-1.60"/>
        <vehicle id="traffic11_0" eclass="HBEFA3/PC_G_EU4" CO2="4102.43" CO="152.07" HC="0.79" NOx="1.83" PMx="0.09" fuel="1.76" electricity="0.00" noise="68.38" route="routeedge2_0" type="traffic11" waiting="0.00" lane="edge2_2" pos="203.10" speed="2.60" angle="90.00" x="603.10" y="-1.60"/>
        <vehicle id="traffic12_0" eclass="HBEFA3/PC_G_EU4" CO2="4100.59" CO="152.05" HC="0.79" NOx="1.83" PMx="0.09" fuel="1.76" electricity="0.00" noise="68.38" route="routeedge2_0" type="traffic12" waiting="0.00" lane="edge2_2" pos="902.70" speed="2.60" angle="90.00" x="1302.70" y="-1.60"/>
        <vehicle id="traffic13_0" eclass="HBEFA3/PC_G_EU4" CO2="4101.76" CO="152.06" HC="0.79" NOx="1.83" PMx="0.09" fuel="1.76" electricity="0.00" noise="68.38" route="routeedge2_0" type="traffic13" waiting="0.00" lane="edge2_2" pos="1065.41" speed="2.60" angle="90.00" x="1465.41" y="-1.60"/>
        <vehicle id="traffic14_0" eclass="HBEFA3/PC_G_EU4" CO2="4102.53" CO="152.07" HC="0.79" NOx="1.83" PMx="0.09" fuel="1.76" electricity="0.00" noise="68.38" route="routeedge2_0" type="traffic14" waiting="0.00" lane="edge2_2" pos="1321.22" speed="2.60" angle="90.00" x="1721.22" y="-1.60"/>
        <vehicle id="traffic1_0" eclass="HBEFA3/PC_G_EU4" CO2="4063.84" CO="151.75" HC="0.79" NOx="1.81" PMx="0.09" fuel="1.75" electricity="0.00" noise="68.24" route="routeedge2_0" type="traffic1" waiting="0.00" lane="edge2_0" pos="1152.16" speed="2.57" angle="90.00" x="1552.16" y="-8.00"/>
        <vehicle id="traffic2_0" eclass="HBEFA3/PC_G_EU4" CO2="4102.35" CO="152.07" HC="0.79" NOx="1.83" PMx="0.09" fuel="1.76" electricity="0.00" noise="68.38" route="routeedge2_0" type="traffic2" waiting="0.00" lane="edge2_0" pos="1192.68" speed="2.60" angle="90.00" x="1592.68" y="-8.00"/>
        <vehicle id="traffic3_0" eclass="HBEFA3/PC_G_EU4" CO2="4102.53" CO="152.07" HC="0.79" NOx="1.83" PMx="0.09" fuel="1.76" electricity="0.00" noise="68.38" route="routeedge2_0" type="traffic3" waiting="0.00" lane="edge2_0" pos="1721.76" speed="2.60" angle="90.00" x="2121.76" y="-8.00"/>
        <vehicle id="traffic4_0" eclass="HBEFA3/PC_G_EU4" CO2="4087.94" CO="151.95" HC="0.79" NOx="1.82" PMx="0.09" fuel="1.76" electricity="0.00" noise="68.33" route="routeedge2_0" type="traffic4" waiting="0.00" lane="edge2_1" pos="328.31" speed="2.59" angle="90.00" x="728.31" y="-4.80"/>
        <vehicle id="traffic5_0" eclass="HBEFA3/PC_G_EU4" CO2="4100.30" CO="152.05" HC="0.79" NOx="1.83" PMx="0.09" fuel="1.76" electricity="0.00" noise="68.37" route="routeedge2_0" type="traffic5" waiting="0.00" lane="edge2_1" pos="390.97" speed="2.60" angle="90.00" x="790.97" y="-4.80"/>
        <vehicle id="traffic6_0" eclass="HBEFA3/PC_G_EU4" CO2="4102.34" CO="152.07" HC="0.79" NOx="1.83" PMx="0.09" fuel="1.76" electricity="0.00" noise="68.38" route="routeedge2_0" type="traffic6" waiting="0.00" lane="edge2_1" pos="542.79" speed="2.60" angle="90.00" x="942.79" y="-4.80"/>
        <vehicle id="traffic7_0" eclass="HBEFA3/PC_G_EU4" CO2="4059.20" CO="151.71" HC="0.79" NOx="1.81" PMx="0.09" fuel="1.74" electricity="0.00" noise="68.22" route="routeedge2_0" type="traffic7" waiting="0.00" lane="edge2_1" pos="1057.34" speed="2.57" angle="90.00" x="1457.34" y="-4.80"/>
        <vehicle id="traffic8_0" eclass="HBEFA3/PC_G_EU4" CO2="4102.11" CO="152.07" HC="0.79" NOx="1.83" PMx="0.09" fuel="1.76" electricity="0.00" noise="68.38" route="routeedge2_0" type="traffic8" waiting="0.00" lane="edge2_1" pos="1095.91" speed="2.60" angle="90.00" x="1495.91" y="-4.80"/>
        <vehicle id="traffic9_0" eclass="HBEFA3/PC_G_EU4" CO2="4102.53" CO="152.07" HC="0.79" NOx="1.83" PMx="0.09" fuel="1.76" electricity="0.00" noise="68.38" route="routeedge2_0" type="traffic9" waiting="0.00" lane="edge2_1" pos="1441.37" speed="2.60" angle="90.00" x="1841.37" y="-4.80"/>
    </timestep>
    <timestep time="3.00">
        <vehicle id="flow_00.0" eclass="HBEFA3/PC_G_EU4" CO2="13677.71" CO="213.97" HC="1.32" NOx="5.78" PMx="0.32" fuel="5.88" electricity="0.00" noise="74.93" route="routeedge0_0" type="traffic" waiting="0.00" lane="edge0_0" pos="55.09" speed="25.68" angle="90.00" x="55.09" y="-8.00"/>
        <vehicle id="rl_0" eclass="HBEFA3/PC_G_EU4" CO2="8464.67" CO="181.88" HC="1.03" NOx="3.77" PMx="0.19" fuel="3.64" electricity="0.00" noise="74.13" route="routeedge2_0" type="rl" waiting="0.00" lane="edge2_1" pos="75.16" speed="6.99" angle="90.00" x="475.16" y="-4.80"/>
        <vehicle id="traffic0_0" eclass="HBEFA3/PC_G_EU4" CO2="5684.56" CO="147.17" HC="0.81" NOx="2.51" PMx="0.12" fuel="2.44" electricity="0.00" noise="69.46" route="routeedge2_0" type="traffic0" waiting="0.00" lane="edge2_0" pos="505.58" speed="5.20" angle="90.00" x="905.58" y="-8.00"/>
        <vehicle id="traffic10_0" eclass="HBEFA3/PC_G_EU4" CO2="5674.52" CO="147.05" HC="0.80" NOx="2.50" PMx="0.12" fuel="2.44" electricity="0.00" noise="69.43" route="routeedge2_0" type="traffic10" waiting="0.00" lane="edge2_2" pos="46.81" speed="5.19" angle="90.00" x="446.81" y="-1.60"/>
        <vehicle id="traffic11_0" eclass="HBEFA3/PC_G_EU4" CO2="5684.65" CO="147.17" HC="0.81" NOx="2.51" PMx="0.12" fuel="2.44" electricity="0.00" noise="69.46" route="routeedge2_0" type="traffic11" waiting="0.00" lane="edge2_2" pos="208.30" speed="5.20" angle="90.00" x="608.30" y="-1.60"/>
        <vehicle id="traffic12_0" eclass="HBEFA3/PC_G_EU4" CO2="5674.68" CO="147.05" HC="0.80" NOx="2.50" PMx="0.12" fuel="2.44" electricity="0.00" noise="69.44" route="routeedge2_0" type="traffic12" waiting="0.00" lane="edge2_2" pos="907.89" speed="5.19" angle="90.00" x="1307.89" y="-1.60"/>
        <vehicle id="traffic13_0" eclass="HBEFA3/PC_G_EU4" CO2="5681.04" CO="147.13" HC="0.80" NOx="2.51" PMx="0.12" fuel="2.44" electricity="0.00" noise="69.45" route="routeedge2_0" type="traffic13" waiting="0.00" lane="edge2_2" pos="1070.61" speed="5.20" angle="90.00" x="1470.61" y="-1.60"/>
        <vehicle id="traffic14_0" eclass="HBEFA3/PC_G_EU4" CO2="5685.19" CO="147.18" HC="0.81" NOx="2.51" PMx="0.12" fuel="2.44" electricity="0.00" noise="69.46" route="routeedge2_0" type="traffic14" waiting="0.00" lane="edge2_2" pos="1326.42" speed="5.20" angle="90.00" x="1726.42" y="-1.60"/>
        <vehicle id="traffic1_0" eclass="HBEFA3/PC_G_EU4" CO2="5482.02" CO="144.67" HC="0.79" NOx="2.41" PMx="0.12" fuel="2.36" electricity="0.00" noise="68.99" route="routeedge2_0" type="traffic1" waiting="0.00" lane="edge2_0" pos="1157.23" speed="5.07" angle="90.00" x="1557.23" y="-8.00"/>
        <vehicle id="traffic2_0" eclass="HBEFA3/PC_G_EU4" CO2="5684.24" CO="147.17" HC="0.81" NOx="2.51" PMx="0.12" fuel="2.44" electricity="0.00" noise="69.46" route="routeedge2_0" type="traffic2" waiting="0.00" lane="edge2_0" pos="1197.88" speed="5.20" angle="90.00" x="1597.88" y="-8.00"/>
        <vehicle id="traffic3_0" eclass="HBEFA3/PC_G_EU4" CO2="5685.19" CO="147.18" HC="0.81" NOx="2.51" PMx="0.12" fuel="2.44" electricity="0.00" noise="69.46" route="routeedge2_0" type="traffic3" waiting="0.00" lane="edge2_0" pos="1726.96" speed="5.20" angle="90.00" x="2126.96" y="-8.00"/>
        <vehicle id="traffic4_0" eclass="HBEFA3/PC_G_EU4" CO2="5606.80" CO="146.20" HC="0.80" NOx="2.47" PMx="0.12" fuel="2.41" electricity="0.00" noise="69.28" route="routeedge2_0" type="traffic4" waiting="0.00" lane="edge2_1" pos="333.46" speed="5.15" angle="90.00" x="733.46" y="-4.80"/>
        <vehicle id="traffic5_0" eclass="HBEFA3/PC_G_EU4" CO2="5673.06" CO="147.03" HC="0.80" NOx="2.50" PMx="0.12" fuel="2.44" electricity="0.00" noise="69.43" route="routeedge2_0" type="traffic5" waiting="0.00" lane="edge2_1" pos="396.17" speed="5.19" angle="90.00" x="796.17" y="-4.80"/>
        <vehicle id="traffic6_0" eclass="HBEFA3/PC_G_EU4" CO2="5684.18" CO="147.17" HC="0.81" NOx="2.51" PMx="0.12" fuel="2.44" electricity="0.00" noise="69.46" route="routeedge2_0" type="traffic6" waiting="0.00" lane="edge2_1" pos="547.98" speed="5.20" angle="90.00" x="947.98" y="-4.80"/>
        <vehicle id="traffic7_0" eclass="HBEFA3/PC_G_EU4" CO2="5458.61" CO="144.39" HC="0.79" NOx="2.40" PMx="0.12" fuel="2.35" electricity="0.00" noise="68.94" route="routeedge2_0" type="traffic7" waiting="0.00" lane="edge2_1" pos="1062.40" speed="5.06" angle="90.00" x="1462.40" y="-4.80"/>
        <vehicle id="traffic8_0" eclass="HBEFA3/PC_G_EU4" CO2="5682.94" CO="147.15" HC="0.81" NOx="2.51" PMx="0.12" fuel="2.44" electricity="0.00" noise="69.45" route="routeedge2_0" type="traffic8" waiting="0.00" lane="edge2_1" pos="1101.11" speed="5.20" angle="90.00" x="1501.11" y="-4.80"/>
        <vehicle id="traffic9_0" eclass="HBEFA3/PC_G_EU4" CO2="5685.19" CO="147.18" HC="0.81" NOx="2.51" PMx="0.12" fuel="2.44" electricity="0.00" noise="69.46" route="routeedge2_0" type="traffic9" waiting="0.00" lane="edge2_1" pos="1446.56" speed="5.20" angle="90.00" x="1846.56" y="-4.80"/>
    </timestep>
    <timestep time="4.00">
        <vehicle id="flow_00.0" eclass="HBEFA3/PC_G_EU4" CO2="12500.82" CO="194.43" HC="1.20" NOx="5.20" PMx="0.29" fuel="5.37" electricity="0.00" noise="74.69" route="routeedge0_0" type="traffic" waiting="0.00" lane="edge0_0" pos="81.87" speed="26.79" angle="90.00" x="81.87" y="-8.00"/>
        <vehicle id="rl_0" eclass="HBEFA3/PC_G_EU4" CO2="11573.88" CO="209.89" HC="1.24" NOx="5.15" PMx="0.26" fuel="4.98" electricity="0.00" noise="75.56" route="routeedge2_0" type="rl" waiting="0.00" lane="edge2_1" pos="85.61" speed="10.46" angle="90.00" x="485.61" y="-4.80"/>
        <vehicle id="traffic0_0" eclass="HBEFA3/PC_G_EU4" CO2="7360.61" CO="149.90" HC="0.86" NOx="3.23" PMx="0.16" fuel="3.16" electricity="0.00" noise="70.58" route="routeedge2_0" type="traffic0" waiting="0.00" lane="edge2_0" pos="513.37" speed="7.79" angle="90.00" x="913.37" y="-8.00"/>
        <vehicle id="traffic10_0" eclass="HBEFA3/PC_G_EU4" CO2="7331.04" CO="149.47" HC="0.86" NOx="3.22" PMx="0.15" fuel="3.15" electricity="0.00" noise="70.54" route="routeedge2_0" type="traffic10" waiting="0.00" lane="edge2_2" pos="54.58" speed="7.78" angle="90.00" x="454.58" y="-1.60"/>
        <vehicle id="traffic11_0" eclass="HBEFA3/PC_G_EU4" CO2="7360.90" CO="149.91" HC="0.86" NOx="3.23" PMx="0.16" fuel="3.16" electricity="0.00" noise="70.58" route="routeedge2_0" type="traffic11" waiting="0.00" lane="edge2_2" pos="216.10" speed="7.79" angle="90.00" x="616.10" y="-1.60"/>
        <vehicle id="traffic12_0" eclass="HBEFA3/PC_G_EU4" CO2="7331.51" CO="149.48" HC="0.86" NOx="3.22" PMx="0.15" fuel="3.15" electricity="0.00" noise="70.54" route="routeedge2_0" type="traffic12" waiting="0.00" lane="edge2_2" pos="915.67" speed="7.78" angle="90.00" x="1315.67" y="-1.60"/>
        <vehicle id="traffic13_0" eclass="HBEFA3/PC_G_EU4" CO2="7350.24" CO="149.75" HC="0.86" NOx="3.22" PMx="0.16" fuel="3.16" electricity="0.00" noise="70.57" route="routeedge2_0" type="traffic13" waiting="0.00" lane="edge2_2" pos="1078.40" speed="7.79" angle="90.00" x="1478.40" y="-1.60"/>
        <vehicle id="traffic14_0" eclass="HBEFA3/PC_G_EU4" CO2="7362.49" CO="149.93" HC="0.86" NOx="3.23" PMx="0.16" fuel="3.16" electricity="0.00" noise="70.59" route="routeedge2_0" type="traffic14" waiting="0.00" lane="edge2_2" pos="1334.21" speed="7.79" angle="90.00" x="1734.21" y="-1.60"/>
        <vehicle id="traffic1_0" eclass="HBEFA3/PC_G_EU4" CO2="6799.68" CO="141.82" HC="0.81" NOx="2.97" PMx="0.14" fuel="2.92" electricity="0.00" noise="69.66" route="routeedge2_0" type="traffic1" waiting="0.00" lane="edge2_0" pos="1164.72" speed="7.49" angle="90.00" x="1564.72" y="-8.00"/>
        <vehicle id="traffic2_0" eclass="HBEFA3/PC_G_EU4" CO2="7359.69" CO="149.89" HC="0.86" NOx="3.23" PMx="0.16" fuel="3.16" electricity="0.00" noise="70.58" route="routeedge2_0" type="traffic2" waiting="0.00" lane="edge2_0" pos="1205.67" speed="7.79" angle="90.00" x="1605.67" y="-8.00"/>
        <vehicle id="traffic3_0" eclass="HBEFA3/PC_G_EU4" CO2="7362.49" CO="149.93" HC="0.86" NOx="3.23" PMx="0.16" fuel="3.16" electricity="0.00" noise="70.59" route="routeedge2_0" type="traffic3" waiting="0.00" lane="edge2_0" pos="1734.75" speed="7.79" angle="90.00" x="2134.75" y="-8.00"/>
        <vehicle id="traffic4_0" eclass="HBEFA3/PC_G_EU4" CO2="7136.02" CO="146.62" HC="0.84" NOx="3.13" PMx="0.15" fuel="3.07" electricity="0.00" noise="70.22" route="routeedge2_0" type="traffic4" waiting="0.00" lane="edge2_1" pos="341.13" speed="7.67" angle="90.00" x="741.13" y="-4.80"/>
        <vehicle id="traffic5_0" eclass="HBEFA3/PC_G_EU4" CO2="7326.76" CO="149.41" HC="0.86" NOx="3.21" PMx="0.15" fuel="3.15" electricity="0.00" noise="70.53" route="routeedge2_0" type="traffic5" waiting="0.00" lane="edge2_1" pos="403.94" speed="7.78" angle="90.00" x="803.94" y="-4.80"/>
        <vehicle id="traffic6_0" eclass="HBEFA3/PC_G_EU4" CO2="7359.46" CO="149.89" HC="0.86" NOx="3.23" PMx="0.16" fuel="3.16" electricity="0.00" noise="70.58" route="routeedge2_0" type="traffic6" waiting="0.00" lane="edge2_1" pos="555.78" speed="7.79" angle="90.00" x="955.78" y="-4.80"/>
        <vehicle id="traffic7_0" eclass="HBEFA3/PC_G_EU4" CO2="6739.66" CO="140.98" HC="0.80" NOx="2.94" PMx="0.14" fuel="2.90" electricity="0.00" noise="69.56" route="routeedge2_0" type="traffic7" waiting="0.00" lane="edge2_1" pos="1069.85" speed="7.45" angle="90.00" x="1469.85" y="-4.80"/>
        <vehicle id="traffic8_0" eclass="HBEFA3/PC_G_EU4" CO2="7355.84" CO="149.83" HC="0.86" NOx="3.23" PMx="0.16" fuel="3.16" electricity="0.00" noise="70.58" route="routeedge2_0" type="traffic8" waiting="0.00" lane="edge2_1" pos="1108.90" speed="7.79" angle="90.00" x="1508.90" y="-4.80"/>
        <vehicle id="traffic9_0" eclass="HBEFA3/PC_G_EU4" CO2="7362.49" CO="149.93" HC="0.86" NOx="3.23" PMx="0.16" fuel="3.16" electricity="0.00" noise="70.59" route="routeedge2_0" type="traffic9" waiting="0.00" lane="edge2_1" pos="1454.36" speed="7.79" angle="90.00" x="1854.36" y="-4.80"/>
    </timestep>
    <timestep time="5.00">
        <vehicle id="flow_00.0" eclass="HBEFA3/PC_G_EU4" CO2="11242.29" CO="172.88" HC="1.07" NOx="4.58" PMx="0.26" fuel="4.83" electricity="0.00" noise="74.48" route="routeedge0_0" type="traffic" waiting="0.00" lane="edge0_0" pos="109.52" speed="27.65" angle="90.00" x="109.52" y="-8.00"/>
        <vehicle id="rl_0" eclass="HBEFA3/PC_G_EU4" CO2="2126.27" CO="15.38" HC="0.12" NOx="0.69" PMx="0.01" fuel="0.91" electricity="0.00" noise="62.11" route="routeedge2_0" type="rl" waiting="0.00" lane="edge2_1" pos="96.07" speed="10.46" angle="90.00" x="496.07" y="-4.80"/>
        <vehicle id="traffic0_0" eclass="HBEFA3/PC_G_EU4" CO2="9097.14" CO="159.64" HC="0.95" NOx="3.98" PMx="0.19" fuel="3.91" electricity="0.00" noise="71.71" route="routeedge2_0" type="traffic0" waiting="0.00" lane="edge2_0" pos="523.74" speed="10.37" angle="90.00" x="923.74" y="-8.00"/>
        <vehicle id="traffic10_0" eclass="HBEFA3/PC_G_EU4" CO2="9032.33" CO="158.59" HC="0.94" NOx="3.95" PMx="0.19" fuel="3.88" electricity="0.00" noise="71.63" route="routeedge2_0" type="traffic10" waiting="0.00" lane="edge2_2" pos="64.92" speed="10.34" angle="90.00" x="464.92" y="-1.60"/>
        <vehicle id="traffic11_0" eclass="HBEFA3/PC_G_EU4" CO2="9097.90" CO="159.66" HC="0.95" NOx="3.98" PMx="0.19" fuel="3.91" electricity="0.00" noise="71.72" route="routeedge2_0" type="traffic11" waiting="0.00" lane="edge2_2" pos="226.47" speed="10.37" angle="90.00" x="626.47" y="-1.60"/>
        <vehicle id="traffic12_0" eclass="HBEFA3/PC_G_EU4" CO2="9033.32" CO="158.61" HC="0.94" NOx="3.95" PMx="0.19" fuel="3.88" electricity="0.00" noise="71.63" route="routeedge2_0" type="traffic12" waiting="0.00" lane="edge2_2" pos="926.01" speed="10.34" angle="90.00" x="1326.01" y="-1.60"/>
        <vehicle id="traffic13_0" eclass="HBEFA3/PC_G_EU4" CO2="9074.43" CO="159.27" HC="0.94" NOx="3.97" PMx="0.19" fuel="3.90" electricity="0.00" noise="71.69" route="routeedge2_0" type="traffic13" waiting="0.00" lane="edge2_2" pos="1088.76" speed="10.36" angle="90.00" x="1488.76" y="-1.60"/>
        <vehicle id="traffic14_0" eclass="HBEFA3/PC_G_EU4" CO2="9101.44" CO="159.71" HC="0.95" NOx="3.98" PMx="0.19" fuel="3.91" electricity="0.00" noise="71.72" route="routeedge2_0" type="traffic14" waiting="0.00" lane="edge2_2" pos="1344.59" speed="10.37" angle="90.00" x="1744.59" y="-1.60"/>
        <vehicle id="traffic1_0" eclass="HBEFA3/PC_G_EU4" CO2="7978.08" CO="142.02" HC="0.84" NOx="3.47" PMx="0.17" fuel="3.43" electricity="0.00" noise="70.26" route="routeedge2_0" type="traffic1" waiting="0.00" lane="edge2_0" pos="1174.51" speed="9.79" angle="90.00" x="1574.51" y="-8.00"/>
        <vehicle id="traffic2_0" eclass="HBEFA3/PC_G_EU4" CO2="9095.25" CO="159.61" HC="0.95" NOx="3.98" PMx="0.19" fuel="3.91" electricity="0.00" noise="71.71" route="routeedge2_0" type="traffic2" waiting="0.00" lane="edge2_0" pos="1216.04" speed="10.37" angle="90.00" x="1616.04" y="-8.00"/>
        <vehicle id="traffic3_0" eclass="HBEFA3/PC_G_EU4" CO2="9101.44" CO="159.71" HC="0.95" NOx="3.98" PMx="0.19" fuel="3.91" electricity="0.00" noise="71.72" route="routeedge2_0" type="traffic3" waiting="0.00" lane="edge2_0" pos="1745.13" speed="10.37" angle="90.00" x="2145.13" y="-8.00"/>
        <vehicle id="traffic4_0" eclass="HBEFA3/PC_G_EU4" CO2="8619.05" CO="151.96" HC="0.90" NOx="3.76" PMx="0.18" fuel="3.70" electricity="0.00" noise="71.10" route="routeedge2_0" type="traffic4" waiting="0.00" lane="edge2_1" pos="351.27" speed="10.14" angle="90.00" x="751.27" y="-4.80"/>
        <vehicle id="traffic5_0" eclass="HBEFA3/PC_G_EU4" CO2="9022.99" CO="158.44" HC="0.94" NOx="3.95" PMx="0.19" fuel="3.88" electricity="0.00" noise="71.62" route="routeedge2_0" type="traffic5" waiting="0.00" lane="edge2_1" pos="414.28" speed="10.34" angle="90.00" x="814.28" y="-4.80"/>
        <vehicle id="traffic6_0" eclass="HBEFA3/PC_G_EU4" CO2="9094.47" CO="159.60" HC="0.95" NOx="3.98" PMx="0.19" fuel="3.91" electricity="0.00" noise="71.71" route="routeedge2_0" type="traffic6" waiting="0.00" lane="edge2_1" pos="566.15" speed="10.37" angle="90.00" x="966.15" y="-4.80"/>
        <vehicle id="traffic7_0" eclass="HBEFA3/PC_G_EU4" CO2="7872.13" CO="140.42" HC="0.83" NOx="3.42" PMx="0.16" fuel="3.38" electricity="0.00" noise="70.12" route="routeedge2_0" type="traffic7" waiting="0.00" lane="edge2_1" pos="1079.57" speed="9.73" angle="90.00" x="1479.57" y="-4.80"/>
        <vehicle id="traffic8_0" eclass="HBEFA3/PC_G_EU4" CO2="9086.77" CO="159.48" HC="0.94" NOx="3.98" PMx="0.19" fuel="3.91" electricity="0.00" noise="71.70" route="routeedge2_0" type="traffic8" waiting="0.00" lane="edge2_1" pos="1119.27" speed="10.37" angle="90.00" x="1519.27" y="-4.80"/>
        <vehicle id="traffic9_0" eclass="HBEFA3/PC_G_EU4" CO2="9101.44" CO="159.71" HC="0.95" NOx="3.98" PMx="0.19" fuel="3.91" electricity="0.00" noise="71.72" route="routeedge2_0" type="traffic9" waiting="0.00" lane="edge2_1" pos="1464.73" speed="10.37" angle="90.00" x="1864.73" y="-4.80"/>
    </timestep>
    <timestep time="6.00">
        <vehicle id="flow_00.0" eclass="HBEFA3/PC_G_EU4" CO2="10054.12" CO="152.14" HC="0.95" NOx="4.01" PMx="0.23" fuel="4.32" electricity="0.00" noise="74.30" route="routeedge0_0" type="traffic" waiting="0.00" lane="edge0_0" pos="137.82" speed="28.30" angle="90.00" x="137.82" y="-8.00"/>
        <vehicle id="rl_0" eclass="HBEFA3/PC_G_EU4" CO2="2126.27" CO="15.38" HC="0.12" NOx="0.69" PMx="0.01" fuel="0.91" electricity="0.00" noise="62.11" route="routeedge2_0" type="rl" waiting="0.00" lane="edge2_1" pos="106.52" speed="10.46" angle="90.00" x="506.52" y="-4.80"/>
        <vehicle id="traffic0_0" eclass="HBEFA3/PC_G_EU4" CO2="10264.83" CO="164.43" HC="1.00" NOx="4.47" PMx="0.22" fuel="4.41" electricity="0.00" noise="72.15" route="routeedge2_0" type="traffic0" waiting="0.00" lane="edge2_0" pos="536.52" speed="12.78" angle="90.00" x="936.52" y="-8.00"/>
        <vehicle id="traffic10_0" eclass="HBEFA3/PC_G_EU4" CO2="10706.42" CO="172.94" HC="1.05" NOx="4.68" PMx="0.23" fuel="4.60" electricity="0.00" noise="72.66" route="routeedge2_0" type="traffic10" waiting="0.00" lane="edge2_2" pos="77.79" speed="12.86" angle="90.00" x="477.79" y="-1.60"/>
        <vehicle id="traffic11_0" eclass="HBEFA3/PC_G_EU4" CO2="4207.69" CO="52.78" HC="0.34" NOx="1.66" PMx="0.06" fuel="1.81" electricity="0.00" noise="64.76" route="routeedge2_0" type="traffic11" waiting="0.00" lane="edge2_2" pos="237.55" speed="11.08" angle="90.00" x="637.55" y="-1.60"/>
        <vehicle id="traffic12_0" eclass="HBEFA3/PC_G_EU4" CO2="10708.05" CO="172.97" HC="1.05" NOx="4.68" PMx="0.23" fuel="4.60" electricity="0.00" noise="72.66" route="routeedge2_0" type="traffic12" waiting="0.00" lane="edge2_2" pos="938.87" speed="12.86" angle="90.00" x="1338.87" y="-1.60"/>
        <vehicle id="traffic13_0" eclass="HBEFA3/PC_G_EU4" CO2="10783.16" CO="174.27" HC="1.05" NOx="4.71" PMx="0.23" fuel="4.64" electricity="0.00" noise="72.74" route="routeedge2_0" type="traffic13" waiting="0.00" lane="edge2_2" pos="1101.66" speed="12.90" angle="90.00" x="1501.66" y="-1.60"/>
        <vehicle id="traffic14_0" eclass="HBEFA3/PC_G_EU4" CO2="10832.74" CO="175.14" HC="1.06" NOx="4.74" PMx="0.23" fuel="4.66" electricity="0.00" noise="72.79" route="routeedge2_0" type="traffic14" waiting="0.00" lane="edge2_2" pos="1357.51" speed="12.92" angle="90.00" x="1757.51" y="-1.60"/>
        <vehicle id="traffic1_0" eclass="HBEFA3/PC_G_EU4" CO2="9030.02" CO="144.89" HC="0.88" NOx="3.91" PMx="0.19" fuel="3.88" electricity="0.00" noise="70.86" route="routeedge2_0" type="traffic1" waiting="0.00" lane="edge2_0" pos="1186.48" speed="11.98" angle="90.00" x="1586.48" y="-8.00"/>
        <vehicle id="traffic2_0" eclass="HBEFA3/PC_G_EU4" CO2="10821.35" CO="174.94" HC="1.06" NOx="4.73" PMx="0.23" fuel="4.65" electricity="0.00" noise="72.78" route="routeedge2_0" type="traffic2" waiting="0.00" lane="edge2_0" pos="1228.96" speed="12.92" angle="90.00" x="1628.96" y="-8.00"/>