<?xml version="1.0" encoding="UTF-8"?>

<!-- generated on Wed Apr  8 23:08:19 2020 by Eclipse SUMO Version 1.5.0
<configuration xmlns:xsi="http://www.w3.org/2001/XMLSchema-instance" xsi:noNamespaceSchemaLocation="http://sumo.dlr.de/xsd/sumoConfiguration.xsd">

    <input>
        <net-file value="/home/akos/workspace/flow/flow/core/kernel/network/debug/cfg/singleagent_autobahn_20200408-2307531586380073.2262282.net.xml"/>
        <route-files value="/home/akos/workspace/flow/flow/core/kernel/network/debug/cfg/singleagent_autobahn_20200408-2307531586380073.2262282.rou.xml"/>
        <additional-files value="/home/akos/workspace/flow/flow/core/kernel/network/debug/cfg/singleagent_autobahn_20200408-2307531586380073.2262282.add.xml"/>
    </input>

    <output>
        <emission-output value="emission_results/singleagent_autobahn_20200408-2307531586380073.2262282-emission.xml"/>
    </output>

    <time>
        <begin value="0"/>
        <step-length value="1"/>
    </time>

    <processing>
        <collision.check-junctions value="true"/>
        <time-to-teleport value="-1"/>
    </processing>

    <report>
        <no-step-log value="true"/>
    </report>

    <traci_server>
        <remote-port value="39609"/>
        <num-clients value="1"/>
    </traci_server>

    <random_number>
        <seed value="52483"/>
    </random_number>

    <gui_only>
        <gui-settings-file value="/home/akos/workspace/flow/flow/core/kernel/network/debug/cfg/singleagent_autobahn_20200408-2307531586380073.2262282.gui.cfg"/>
        <tracker-interval value="1"/>
    </gui_only>

</configuration>
-->

<emission-export xmlns:xsi="http://www.w3.org/2001/XMLSchema-instance" xsi:noNamespaceSchemaLocation="http://sumo.dlr.de/xsd/emission_file.xsd">
    <timestep time="0.00"/>
    <timestep time="1.00">
        <vehicle id="flow_00.0" eclass="HBEFA3/PC_G_EU4" CO2="2266.28" CO="0.00" HC="0.04" NOx="0.69" PMx="0.01" fuel="0.97" electricity="0.00" noise="63.96" route="routeedge0_0" type="traffic" waiting="0.00" lane="edge0_0" pos="5.10" speed="13.02" angle="90.00" x="5.10" y="-8.00"/>
        <vehicle id="rl_0" eclass="HBEFA3/PC_G_EU4" CO2="2624.72" CO="164.78" HC="0.81" NOx="1.20" PMx="0.07" fuel="1.13" electricity="0.00" noise="55.94" route="routeedge2_0" type="rl" waiting="0.00" lane="edge2_0" pos="612.98" speed="0.00" angle="90.00" x="1012.98" y="-8.00"/>
        <vehicle id="traffic0_0" eclass="HBEFA3/PC_G_EU4" CO2="2624.72" CO="164.78" HC="0.81" NOx="1.20" PMx="0.07" fuel="1.13" electricity="0.00" noise="55.94" route="routeedge2_0" type="traffic0" waiting="0.00" lane="edge2_0" pos="866.38" speed="0.00" angle="90.00" x="1266.38" y="-8.00"/>
        <vehicle id="traffic10_0" eclass="HBEFA3/PC_G_EU4" CO2="2624.72" CO="164.78" HC="0.81" NOx="1.20" PMx="0.07" fuel="1.13" electricity="0.00" noise="55.94" route="routeedge2_0" type="traffic10" waiting="0.00" lane="edge2_2" pos="1162.63" speed="0.00" angle="90.00" x="1562.63" y="-1.60"/>
        <vehicle id="traffic11_0" eclass="HBEFA3/PC_G_EU4" CO2="2624.72" CO="164.78" HC="0.81" NOx="1.20" PMx="0.07" fuel="1.13" electricity="0.00" noise="55.94" route="routeedge2_0" type="traffic11" waiting="0.00" lane="edge2_2" pos="1199.55" speed="0.00" angle="90.00" x="1599.55" y="-1.60"/>
        <vehicle id="traffic12_0" eclass="HBEFA3/PC_G_EU4" CO2="2624.72" CO="164.78" HC="0.81" NOx="1.20" PMx="0.07" fuel="1.13" electricity="0.00" noise="55.94" route="routeedge2_0" type="traffic12" waiting="0.00" lane="edge2_2" pos="1232.61" speed="0.00" angle="90.00" x="1632.61" y="-1.60"/>
        <vehicle id="traffic13_0" eclass="HBEFA3/PC_G_EU4" CO2="2624.72" CO="164.78" HC="0.81" NOx="1.20" PMx="0.07" fuel="1.13" electricity="0.00" noise="55.94" route="routeedge2_0" type="traffic13" waiting="0.00" lane="edge2_2" pos="1692.06" speed="0.00" angle="90.00" x="2092.06" y="-1.60"/>
        <vehicle id="traffic14_0" eclass="HBEFA3/PC_G_EU4" CO2="2624.72" CO="164.78" HC="0.81" NOx="1.20" PMx="0.07" fuel="1.13" electricity="0.00" noise="55.94" route="routeedge2_0" type="traffic14" waiting="0.00" lane="edge2_2" pos="1850.15" speed="0.00" angle="90.00" x="2250.15" y="-1.60"/>
        <vehicle id="traffic1_0" eclass="HBEFA3/PC_G_EU4" CO2="2624.72" CO="164.78" HC="0.81" NOx="1.20" PMx="0.07" fuel="1.13" electricity="0.00" noise="55.94" route="routeedge2_0" type="traffic1" waiting="0.00" lane="edge2_0" pos="906.38" speed="0.00" angle="90.00" x="1306.38" y="-8.00"/>
        <vehicle id="traffic2_0" eclass="HBEFA3/PC_G_EU4" CO2="2624.72" CO="164.78" HC="0.81" NOx="1.20" PMx="0.07" fuel="1.13" electricity="0.00" noise="55.94" route="routeedge2_0" type="traffic2" waiting="0.00" lane="edge2_0" pos="1928.47" speed="0.00" angle="90.00" x="2328.47" y="-8.00"/>
        <vehicle id="traffic3_0" eclass="HBEFA3/PC_G_EU4" CO2="2624.72" CO="164.78" HC="0.81" NOx="1.20" PMx="0.07" fuel="1.13" electricity="0.00" noise="55.94" route="routeedge2_0" type="traffic3" waiting="0.00" lane="edge2_1" pos="375.84" speed="0.00" angle="90.00" x="775.84" y="-4.80"/>
        <vehicle id="traffic4_0" eclass="HBEFA3/PC_G_EU4" CO2="2624.72" CO="164.78" HC="0.81" NOx="1.20" PMx="0.07" fuel="1.13" electricity="0.00" noise="55.94" route="routeedge2_0" type="traffic4" waiting="0.00" lane="edge2_1" pos="1293.61" speed="0.00" angle="90.00" x="1693.61" y="-4.80"/>
        <vehicle id="traffic5_0" eclass="HBEFA3/PC_G_EU4" CO2="2624.72" CO="164.78" HC="0.81" NOx="1.20" PMx="0.07" fuel="1.13" electricity="0.00" noise="55.94" route="routeedge2_0" type="traffic5" waiting="0.00" lane="edge2_1" pos="1405.34" speed="0.00" angle="90.00" x="1805.34" y="-4.80"/>
        <vehicle id="traffic6_0" eclass="HBEFA3/PC_G_EU4" CO2="2624.72" CO="164.78" HC="0.81" NOx="1.20" PMx="0.07" fuel="1.13" electricity="0.00" noise="55.94" route="routeedge2_0" type="traffic6" waiting="0.00" lane="edge2_1" pos="1663.26" speed="0.00" angle="90.00" x="2063.26" y="-4.80"/>
        <vehicle id="traffic7_0" eclass="HBEFA3/PC_G_EU4" CO2="2624.72" CO="164.78" HC="0.81" NOx="1.20" PMx="0.07" fuel="1.13" electricity="0.00" noise="55.94" route="routeedge2_0" type="traffic7" waiting="0.00" lane="edge2_1" pos="1884.64" speed="0.00" angle="90.00" x="2284.64" y="-4.80"/>
        <vehicle id="traffic8_0" eclass="HBEFA3/PC_G_EU4" CO2="2624.72" CO="164.78" HC="0.81" NOx="1.20" PMx="0.07" fuel="1.13" electricity="0.00" noise="55.94" route="routeedge2_0" type="traffic8" waiting="0.00" lane="edge2_1" pos="1893.37" speed="0.00" angle="90.00" x="2293.37" y="-4.80"/>
        <vehicle id="traffic9_0" eclass="HBEFA3/PC_G_EU4" CO2="2624.72" CO="164.78" HC="0.81" NOx="1.20" PMx="0.07" fuel="1.13" electricity="0.00" noise="55.94" route="routeedge2_0" type="traffic9" waiting="0.00" lane="edge2_2" pos="394.15" speed="0.00" angle="90.00" x="794.15" y="-1.60"/>
    </timestep>
    <timestep time="2.00">
        <vehicle id="flow_00.0" eclass="HBEFA3/PC_G_EU4" CO2="12503.83" CO="194.58" HC="1.19" NOx="5.46" PMx="0.28" fuel="5.37" electricity="0.00" noise="73.77" route="routeedge0_0" type="traffic" waiting="0.00" lane="edge0_0" pos="20.60" speed="15.50" angle="90.00" x="20.60" y="-8.00"/>
        <vehicle id="rl_0" eclass="HBEFA3/PC_G_EU4" CO2="2624.72" CO="164.78" HC="0.81" NOx="1.20" PMx="0.07" fuel="1.13" electricity="0.00" noise="55.94" route="routeedge2_0" type="rl" waiting="1.00" lane="edge2_0" pos="612.98" speed="0.00" angle="90.00" x="1012.98" y="-8.00"/>
        <vehicle id="traffic0_0" eclass="HBEFA3/PC_G_EU4" CO2="4062.76" CO="151.74" HC="0.79" NOx="1.81" PMx="0.09" fuel="1.75" electricity="0.00" noise="68.23" route="routeedge2_0" type="traffic0" waiting="0.00" lane="edge2_0" pos="868.95" speed="2.57" angle="90.00" x="1268.95" y="-8.00"/>
        <vehicle id="traffic10_0" eclass="HBEFA3/PC_G_EU4" CO2="4054.67" CO="151.68" HC="0.79" NOx="1.81" PMx="0.09" fuel="1.74" electricity="0.00" noise="68.20" route="routeedge2_0" type="traffic10" waiting="0.00" lane="edge2_2" pos="1165.20" speed="2.56" angle="90.00" x="1565.20" y="-1.60"/>
        <vehicle id="traffic11_0" eclass="HBEFA3/PC_G_EU4" CO2="4040.58" CO="151.56" HC="0.79" NOx="1.80" PMx="0.09" fuel="1.74" electricity="0.00" noise="68.15" route="routeedge2_0" type="traffic11" waiting="0.00" lane="edge2_2" pos="1202.10" speed="2.55" angle="90.00" x="1602.10" y="-1.60"/>
        <vehicle id="traffic12_0" eclass="HBEFA3/PC_G_EU4" CO2="4102.30" CO="152.07" HC="0.79" NOx="1.83" PMx="0.09" fuel="1.76" electricity="0.00" noise="68.38" route="routeedge2_0" type="traffic12" waiting="0.00" lane="edge2_2" pos="1235.21" speed="2.60" angle="90.00" x="1635.21" y="-1.60"/>
        <vehicle id="traffic13_0" eclass="HBEFA3/PC_G_EU4" CO2="4100.48" CO="152.05" HC="0.79" NOx="1.83" PMx="0.09" fuel="1.76" electricity="0.00" noise="68.37" route="routeedge2_0" type="traffic13" waiting="0.00" lane="edge2_2" pos="1694.66" speed="2.60" angle="90.00" x="2094.66" y="-1.60"/>
        <vehicle id="traffic14_0" eclass="HBEFA3/PC_G_EU4" CO2="4102.53" CO="152.07" HC="0.79" NOx="1.83" PMx="0.09" fuel="1.76" electricity="0.00" noise="68.38" route="routeedge2_0" type="traffic14" waiting="0.00" lane="edge2_2" pos="1852.75" speed="2.60" angle="90.00" x="2252.75" y="-1.60"/>
        <vehicle id="traffic1_0" eclass="HBEFA3/PC_G_EU4" CO2="4102.48" CO="152.07" HC="0.79" NOx="1.83" PMx="0.09" fuel="1.76" electricity="0.00" noise="68.38" route="routeedge2_0" type="traffic1" waiting="0.00" lane="edge2_0" pos="908.98" speed="2.60" angle="90.00" x="1308.98" y="-8.00"/>
        <vehicle id="traffic2_0" eclass="HBEFA3/PC_G_EU4" CO2="4102.53" CO="152.07" HC="0.79" NOx="1.83" PMx="0.09" fuel="1.76" electricity="0.00" noise="68.38" route="routeedge2_0" type="traffic2" waiting="0.00" lane="edge2_0" pos="1931.07" speed="2.60" angle="90.00" x="2331.07" y="-8.00"/>
        <vehicle id="traffic3_0" eclass="HBEFA3/PC_G_EU4" CO2="4102.47" CO="152.07" HC="0.79" NOx="1.83" PMx="0.09" fuel="1.76" electricity="0.00" noise="68.38" route="routeedge2_0" type="traffic3" waiting="0.00" lane="edge2_1" pos="378.44" speed="2.60" angle="90.00" x="778.44" y="-4.80"/>
        <vehicle id="traffic4_0" eclass="HBEFA3/PC_G_EU4" CO2="4098.29" CO="152.04" HC="0.79" NOx="1.83" PMx="0.09" fuel="1.76" electricity="0.00" noise="68.37" route="routeedge2_0" type="traffic4" waiting="0.00" lane="edge2_1" pos="1296.21" speed="2.60" angle="90.00" x="1696.21" y="-4.80"/>
        <vehicle id="traffic5_0" eclass="HBEFA3/PC_G_EU4" CO2="4101.78" CO="152.06" HC="0.79" NOx="1.83" PMx="0.09" fuel="1.76" electricity="0.00" noise="68.38" route="routeedge2_0" type="traffic5" waiting="0.00" lane="edge2_1" pos="1407.94" speed="2.60" angle="90.00" x="1807.94" y="-4.80"/>
        <vehicle id="traffic6_0" eclass="HBEFA3/PC_G_EU4" CO2="4101.50" CO="152.06" HC="0.79" NOx="1.83" PMx="0.09" fuel="1.76" electricity="0.00" noise="68.38" route="routeedge2_0" type="traffic6" waiting="0.00" lane="edge2_1" pos="1665.86" speed="2.60" angle="90.00" x="2065.86" y="-4.80"/>
        <vehicle id="traffic7_0" eclass="HBEFA3/PC_G_EU4" CO2="2672.04" CO="153.14" HC="0.76" NOx="1.21" PMx="0.06" fuel="1.15" electricity="0.00" noise="59.41" route="routeedge2_0" type="traffic7" waiting="0.00" lane="edge2_1" pos="1885.37" speed="0.73" angle="90.00" x="2285.37" y="-4.80"/>
        <vehicle id="traffic8_0" eclass="HBEFA3/PC_G_EU4" CO2="4102.53" CO="152.07" HC="0.79" NOx="1.83" PMx="0.09" fuel="1.76" electricity="0.00" noise="68.38" route="routeedge2_0" type="traffic8" waiting="0.00" lane="edge2_1" pos="1895.97" speed="2.60" angle="90.00" x="2295.97" y="-4.80"/>
        <vehicle id="traffic9_0" eclass="HBEFA3/PC_G_EU4" CO2="4102.45" CO="152.07" HC="0.79" NOx="1.83" PMx="0.09" fuel="1.76" electricity="0.00" noise="68.38" route="routeedge2_0" type="traffic9" waiting="0.00" lane="edge2_2" pos="396.75" speed="2.60" angle="90.00" x="796.75" y="-1.60"/>
    </timestep>
    <timestep time="3.00">
        <vehicle id="flow_00.0" eclass="HBEFA3/PC_G_EU4" CO2="13828.28" CO="213.01" HC="1.31" NOx="6.03" PMx="0.31" fuel="5.94" electricity="0.00" noise="74.50" route="routeedge0_0" type="traffic" waiting="0.00" lane="edge0_0" pos="38.46" speed="17.86" angle="90.00" x="38.46" y="-8.00"/>
        <vehicle id="rl_0" eclass="HBEFA3/PC_G_EU4" CO2="2624.72" CO="164.78" HC="0.81" NOx="1.20" PMx="0.07" fuel="1.13" electricity="0.00" noise="55.94" route="routeedge2_0" type="rl" waiting="2.00" lane="edge2_0" pos="612.98" speed="0.00" angle="90.00" x="1012.98" y="-8.00"/>
        <vehicle id="traffic0_0" eclass="HBEFA3/PC_G_EU4" CO2="5476.53" CO="144.60" HC="0.79" NOx="2.41" PMx="0.12" fuel="2.35" electricity="0.00" noise="68.98" route="routeedge2_0" type="traffic0" waiting="0.00" lane="edge2_0" pos="874.02" speed="5.07" angle="90.00" x="1274.02" y="-8.00"/>
        <vehicle id="traffic10_0" eclass="HBEFA3/PC_G_EU4" CO2="5433.33" CO="144.08" HC="0.78" NOx="2.39" PMx="0.11" fuel="2.34" electricity="0.00" noise="68.88" route="routeedge2_0" type="traffic10" waiting="0.00" lane="edge2_2" pos="1170.24" speed="5.04" angle="90.00" x="1570.24" y="-1.60"/>
        <vehicle id="traffic11_0" eclass="HBEFA3/PC_G_EU4" CO2="5366.94" CO="143.29" HC="0.78" NOx="2.36" PMx="0.11" fuel="2.31" electricity="0.00" noise="68.73" route="routeedge2_0" type="traffic11" waiting="0.00" lane="edge2_2" pos="1207.10" speed="5.00" angle="90.00" x="1607.10" y="-1.60"/>
        <vehicle id="traffic12_0" eclass="HBEFA3/PC_G_EU4" CO2="5683.93" CO="147.16" HC="0.81" NOx="2.51" PMx="0.12" fuel="2.44" electricity="0.00" noise="69.46" route="routeedge2_0" type="traffic12" waiting="0.00" lane="edge2_2" pos="1240.40" speed="5.20" angle="90.00" x="1640.40" y="-1.60"/>
        <vehicle id="traffic13_0" eclass="HBEFA3/PC_G_EU4" CO2="5674.04" CO="147.04" HC="0.80" NOx="2.50" PMx="0.12" fuel="2.44" electricity="0.00" noise="69.43" route="routeedge2_0" type="traffic13" waiting="0.00" lane="edge2_2" pos="1699.86" speed="5.19" angle="90.00" x="2099.86" y="-1.60"/>
        <vehicle id="traffic14_0" eclass="HBEFA3/PC_G_EU4" CO2="5685.19" CO="147.18" HC="0.81" NOx="2.51" PMx="0.12" fuel="2.44" electricity="0.00" noise="69.46" route="routeedge2_0" type="traffic14" waiting="0.00" lane="edge2_2" pos="1857.95" speed="5.20" angle="90.00" x="2257.95" y="-1.60"/>
        <vehicle id="traffic1_0" eclass="HBEFA3/PC_G_EU4" CO2="5684.94" CO="147.18" HC="0.81" NOx="2.51" PMx="0.12" fuel="2.44" electricity="0.00" noise="69.46" route="routeedge2_0" type="traffic1" waiting="0.00" lane="edge2_0" pos="914.18" speed="5.20" angle="90.00" x="1314.18" y="-8.00"/>
        <vehicle id="traffic2_0" eclass="HBEFA3/PC_G_EU4" CO2="5685.19" CO="147.18" HC="0.81" NOx="2.51" PMx="0.12" fuel="2.44" electricity="0.00" noise="69.46" route="routeedge2_0" type="traffic2" waiting="0.00" lane="edge2_0" pos="1936.27" speed="5.20" angle="90.00" x="2336.27" y="-8.00"/>
        <vehicle id="traffic3_0" eclass="HBEFA3/PC_G_EU4" CO2="5684.88" CO="147.18" HC="0.81" NOx="2.51" PMx="0.12" fuel="2.44" electricity="0.00" noise="69.46" route="routeedge2_0" type="traffic3" waiting="0.00" lane="edge2_1" pos="383.64" speed="5.20" angle="90.00" x="783.64" y="-4.80"/>
        <vehicle id="traffic4_0" eclass="HBEFA3/PC_G_EU4" CO2="5662.23" CO="146.89" HC="0.80" NOx="2.50" PMx="0.12" fuel="2.43" electricity="0.00" noise="69.41" route="routeedge2_0" type="traffic4" waiting="0.00" lane="edge2_1" pos="1301.40" speed="5.19" angle="90.00" x="1701.40" y="-4.80"/>
        <vehicle id="traffic5_0" eclass="HBEFA3/PC_G_EU4" CO2="5681.11" CO="147.13" HC="0.80" NOx="2.51" PMx="0.12" fuel="2.44" electricity="0.00" noise="69.45" route="routeedge2_0" type="traffic5" waiting="0.00" lane="edge2_1" pos="1413.13" speed="5.20" angle="90.00" x="1813.13" y="-4.80"/>
        <vehicle id="traffic6_0" eclass="HBEFA3/PC_G_EU4" CO2="5677.83" CO="147.09" HC="0.80" NOx="2.50" PMx="0.12" fuel="2.44" electricity="0.00" noise="69.44" route="routeedge2_0" type="traffic6" waiting="0.00" lane="edge2_1" pos="1671.05" speed="5.20" angle="90.00" x="2071.05" y="-4.80"/>
        <vehicle id="traffic7_0" eclass="HBEFA3/PC_G_EU4" CO2="3231.59" CO="140.24" HC="0.71" NOx="1.43" PMx="0.07" fuel="1.39" electricity="0.00" noise="63.33" route="routeedge2_0" type="traffic7" waiting="0.00" lane="edge2_1" pos="1887.58" speed="2.21" angle="90.00" x="2287.58" y="-4.80"/>
        <vehicle id="traffic8_0" eclass="HBEFA3/PC_G_EU4" CO2="5685.19" CO="147.18" HC="0.81" NOx="2.51" PMx="0.12" fuel="2.44" electricity="0.00" noise="69.46" route="routeedge2_0" type="traffic8" waiting="0.00" lane="edge2_1" pos="1901.17" speed="5.20" angle="90.00" x="2301.17" y="-4.80"/>
        <vehicle id="traffic9_0" eclass="HBEFA3/PC_G_EU4" CO2="5684.74" CO="147.17" HC="0.81" NOx="2.51" PMx="0.12" fuel="2.44" electricity="0.00" noise="69.46" route="routeedge2_0" type="traffic9" waiting="0.00" lane="edge2_2" pos="401.95" speed="5.20" angle="90.00" x="801.95" y="-1.60"/>
    </timestep>
    <timestep time="4.00">
        <vehicle id="flow_00.0" eclass="HBEFA3/PC_G_EU4" CO2="14714.19" CO="227.23" HC="1.40" NOx="6.39" PMx="0.33" fuel="6.32" electricity="0.00" noise="74.97" route="routeedge0_0" type="traffic" waiting="0.00" lane="edge0_0" pos="58.53" speed="20.07" angle="90.00" x="58.53" y="-8.00"/>
        <vehicle id="rl_0" eclass="HBEFA3/PC_G_EU4" CO2="2624.72" CO="164.78" HC="0.81" NOx="1.20" PMx="0.07" fuel="1.13" electricity="0.00" noise="55.94" route="routeedge2_0" type="rl" waiting="3.00" lane="edge2_0" pos="612.98" speed="0.00" angle="90.00" x="1012.98" y="-8.00"/>
        <vehicle id="traffic0_0" eclass="HBEFA3/PC_G_EU4" CO2="6785.58" CO="141.63" HC="0.81" NOx="2.97" PMx="0.14" fuel="2.92" electricity="0.00" noise="69.63" route="routeedge2_0" type="traffic0" waiting="0.00" lane="edge2_0" pos="881.50" speed="7.48" angle="90.00" x="1281.50" y="-8.00"/>
        <vehicle id="traffic10_0" eclass="HBEFA3/PC_G_EU4" CO2="6649.80" CO="139.68" HC="0.79" NOx="2.90" PMx="0.14" fuel="2.86" electricity="0.00" noise="69.40" route="routeedge2_0" type="traffic10" waiting="0.00" lane="edge2_2" pos="1177.64" speed="7.40" angle="90.00" x="1577.64" y="-1.60"/>
        <vehicle id="traffic11_0" eclass="HBEFA3/PC_G_EU4" CO2="6514.62" CO="137.89" HC="0.78" NOx="2.84" PMx="0.13" fuel="2.80" electricity="0.00" noise="69.17" route="routeedge2_0" type="traffic11" waiting="0.00" lane="edge2_2" pos="1214.42" speed="7.32" angle="90.00" x="1614.42" y="-1.60"/>
        <vehicle id="traffic12_0" eclass="HBEFA3/PC_G_EU4" CO2="7358.76" CO="149.88" HC="0.86" NOx="3.23" PMx="0.16" fuel="3.16" electricity="0.00" noise="70.58" route="routeedge2_0" type="traffic12" waiting="0.00" lane="edge2_2" pos="1248.20" speed="7.79" angle="90.00" x="1648.20" y="-1.60"/>
        <vehicle id="traffic13_0" eclass="HBEFA3/PC_G_EU4" CO2="7329.63" CO="149.45" HC="0.86" NOx="3.21" PMx="0.15" fuel="3.15" electricity="0.00" noise="70.53" route="routeedge2_0" type="traffic13" waiting="0.00" lane="edge2_2" pos="1707.63" speed="7.78" angle="90.00" x="2107.63" y="-1.60"/>
        <vehicle id="traffic14_0" eclass="HBEFA3/PC_G_EU4" CO2="7362.49" CO="149.93" HC="0.86" NOx="3.23" PMx="0.16" fuel="3.16" electricity="0.00" noise="70.59" route="routeedge2_0" type="traffic14" waiting="0.00" lane="edge2_2" pos="1865.75" speed="7.79" angle="90.00" x="2265.75" y="-1.60"/>
        <vehicle id="traffic1_0" eclass="HBEFA3/PC_G_EU4" CO2="7361.75" CO="149.92" HC="0.86" NOx="3.23" PMx="0.16" fuel="3.16" electricity="0.00" noise="70.59" route="routeedge2_0" type="traffic1" waiting="0.00" lane="edge2_0" pos="921.97" speed="7.79" angle="90.00" x="1321.97" y="-8.00"/>
        <vehicle id="traffic2_0" eclass="HBEFA3/PC_G_EU4" CO2="7362.49" CO="149.93" HC="0.86" NOx="3.23" PMx="0.16" fuel="3.16" electricity="0.00" noise="70.59" route="routeedge2_0" type="traffic2" waiting="0.00" lane="edge2_0" pos="1944.07" speed="7.79" angle="90.00" x="2344.07" y="-8.00"/>
        <vehicle id="traffic3_0" eclass="HBEFA3/PC_G_EU4" CO2="7361.57" CO="149.92" HC="0.86" NOx="3.23" PMx="0.16" fuel="3.16" electricity="0.00" noise="70.59" route="routeedge2_0" type="traffic3" waiting="0.00" lane="edge2_1" pos="391.44" speed="7.79" angle="90.00" x="791.44" y="-4.80"/>
        <vehicle id="traffic4_0" eclass="HBEFA3/PC_G_EU4" CO2="7295.05" CO="148.94" HC="0.85" NOx="3.20" PMx="0.15" fuel="3.14" electricity="0.00" noise="70.48" route="routeedge2_0" type="traffic4" waiting="0.00" lane="edge2_1" pos="1309.15" speed="7.76" angle="90.00" x="1709.15" y="-4.80"/>
        <vehicle id="traffic5_0" eclass="HBEFA3/PC_G_EU4" CO2="7350.43" CO="149.75" HC="0.86" NOx="3.22" PMx="0.16" fuel="3.16" electricity="0.00" noise="70.57" route="routeedge2_0" type="traffic5" waiting="0.00" lane="edge2_1" pos="1420.92" speed="7.79" angle="90.00" x="1820.92" y="-4.80"/>
        <vehicle id="traffic6_0" eclass="HBEFA3/PC_G_EU4" CO2="7335.02" CO="149.52" HC="0.86" NOx="3.22" PMx="0.15" fuel="3.15" electricity="0.00" noise="70.54" route="routeedge2_0" type="traffic6" waiting="0.00" lane="edge2_1" pos="1678.83" speed="7.78" angle="90.00" x="2078.83" y="-4.80"/>
        <vehicle id="traffic7_0" eclass="HBEFA3/PC_G_EU4" CO2="4203.06" CO="132.22" HC="0.70" NOx="1.84" PMx="0.09" fuel="1.81" electricity="0.00" noise="65.76" route="routeedge2_0" type="traffic7" waiting="0.00" lane="edge2_1" pos="1891.65" speed="4.07" angle="90.00" x="2291.65" y="-4.80"/>
        <vehicle id="traffic8_0" eclass="HBEFA3/PC_G_EU4" CO2="7362.49" CO="149.93" HC="0.86" NOx="3.23" PMx="0.16" fuel="3.16" electricity="0.00" noise="70.59" route="routeedge2_0" type="traffic8" waiting="0.00" lane="edge2_1" pos="1908.97" speed="7.79" angle="90.00" x="2308.97" y="-4.80"/>
        <vehicle id="traffic9_0" eclass="HBEFA3/PC_G_EU4" CO2="7361.14" CO="149.91" HC="0.86" NOx="3.23" PMx="0.16" fuel="3.16" electricity="0.00" noise="70.58" route="routeedge2_0" type="traffic9" waiting="0.00" lane="edge2_2" pos="409.75" speed="7.79" angle="90.00" x="809.75" y="-1.60"/>
    </timestep>
    <timestep time="5.00">
        <vehicle id="flow_00.0" eclass="HBEFA3/PC_G_EU4" CO2="15041.25" CO="233.82" HC="1.44" NOx="6.50" PMx="0.35" fuel="6.47" electricity="0.00" noise="75.18" route="routeedge0_0" type="traffic" waiting="0.00" lane="edge0_0" pos="80.59" speed="22.06" angle="90.00" x="80.59" y="-8.00"/>
        <vehicle id="rl_0" eclass="HBEFA3/PC_G_EU4" CO2="2624.72" CO="164.78" HC="0.81" NOx="1.20" PMx="0.07" fuel="1.13" electricity="0.00" noise="55.94" route="routeedge2_0" type="rl" waiting="4.00" lane="edge2_0" pos="612.98" speed="0.00" angle="90.00" x="1012.98" y="-8.00"/>
        <vehicle id="traffic0_0" eclass="HBEFA3/PC_G_EU4" CO2="7953.24" CO="141.64" HC="0.84" NOx="3.46" PMx="0.17" fuel="3.42" electricity="0.00" noise="70.23" route="routeedge2_0" type="traffic0" waiting="0.00" lane="edge2_0" pos="891.27" speed="9.77" angle="90.00" x="1291.27" y="-8.00"/>
        <vehicle id="traffic10_0" eclass="HBEFA3/PC_G_EU4" CO2="7608.87" CO="136.17" HC="0.80" NOx="3.30" PMx="0.16" fuel="3.27" electricity="0.00" noise="69.75" route="routeedge2_0" type="traffic10" waiting="0.00" lane="edge2_2" pos="1187.25" speed="9.60" angle="90.00" x="1587.25" y="-1.60"/>
        <vehicle id="traffic11_0" eclass="HBEFA3/PC_G_EU4" CO2="7500.57" CO="134.96" HC="0.79" NOx="3.25" PMx="0.15" fuel="3.22" electricity="0.00" noise="69.62" route="routeedge2_0" type="traffic11" waiting="0.00" lane="edge2_2" pos="1223.92" speed="9.50" angle="90.00" x="1623.92" y="-1.60"/>
        <vehicle id="traffic12_0" eclass="HBEFA3/PC_G_EU4" CO2="9093.18" CO="159.58" HC="0.95" NOx="3.98" PMx="0.19" fuel="3.91" electricity="0.00" noise="71.71" route="routeedge2_0" type="traffic12" waiting="0.00" lane="edge2_2" pos="1258.57" speed="10.37" angle="90.00" x="1658.57" y="-1.60"/>
        <vehicle id="traffic13_0" eclass="HBEFA3/PC_G_EU4" CO2="9029.26" CO="158.54" HC="0.94" NOx="3.95" PMx="0.19" fuel="3.88" electricity="0.00" noise="71.63" route="routeedge2_0" type="traffic13" waiting="0.00" lane="edge2_2" pos="1717.97" speed="10.34" angle="90.00" x="2117.97" y="-1.60"/>
        <vehicle id="traffic14_0" eclass="HBEFA3/PC_G_EU4" CO2="9101.44" CO="159.71" HC="0.95" NOx="3.98" PMx="0.19" fuel="3.91" electricity="0.00" noise="71.72" route="routeedge2_0" type="traffic14" waiting="0.00" lane="edge2_2" pos="1876.12" speed="10.37" angle="90.00" x="2276.12" y="-1.60"/>
        <vehicle id="traffic1_0" eclass="HBEFA3/PC_G_EU4" CO2="9099.79" CO="159.69" HC="0.95" NOx="3.98" PMx="0.19" fuel="3.91" electricity="0.00" noise="71.72" route="routeedge2_0" type="traffic1" waiting="0.00" lane="edge2_0" pos="932.35" speed="10.37" angle="90.00" x="1332.35" y="-8.00"/>
        <vehicle id="traffic2_0" eclass="HBEFA3/PC_G_EU4" CO2="9101.44" CO="159.71" HC="0.95" NOx="3.98" PMx="0.19" fuel="3.91" electricity="0.00" noise="71.72" route="routeedge2_0" type="traffic2" waiting="0.00" lane="edge2_0" pos="1954.44" speed="10.37" angle="90.00" x="2354.44" y="-8.00"/>
        <vehicle id="traffic3_0" eclass="HBEFA3/PC_G_EU4" CO2="9099.38" CO="159.68" HC="0.95" NOx="3.98" PMx="0.19" fuel="3.91" electricity="0.00" noise="71.72" route="routeedge2_0" type="traffic3" waiting="0.00" lane="edge2_1" pos="401.81" speed="10.37" angle="90.00" x="801.81" y="-4.80"/>
        <vehicle id="traffic4_0" eclass="HBEFA3/PC_G_EU4" CO2="8954.05" CO="157.33" HC="0.93" NOx="3.92" PMx="0.19" fuel="3.85" electricity="0.00" noise="71.53" route="routeedge2_0" type="traffic4" waiting="0.00" lane="edge2_1" pos="1319.46" speed="10.30" angle="90.00" x="1719.46" y="-4.80"/>
        <vehicle id="traffic5_0" eclass="HBEFA3/PC_G_EU4" CO2="9074.81" CO="159.28" HC="0.94" NOx="3.97" PMx="0.19" fuel="3.90" electricity="0.00" noise="71.69" route="routeedge2_0" type="traffic5" waiting="0.00" lane="edge2_1" pos="1431.28" speed="10.36" angle="90.00" x="1831.28" y="-4.80"/>
        <vehicle id="traffic6_0" eclass="HBEFA3/PC_G_EU4" CO2="9029.13" CO="158.51" HC="0.94" NOx="3.95" PMx="0.19" fuel="3.88" electricity="0.00" noise="71.63" route="routeedge2_0" type="traffic6" waiting="0.00" lane="edge2_1" pos="1689.18" speed="10.34" angle="90.00" x="2089.18" y="-4.80"/>
        <vehicle id="traffic7_0" eclass="HBEFA3/PC_G_EU4" CO2="5484.53" CO="130.57" HC="0.72" NOx="2.39" PMx="0.11" fuel="2.36" electricity="0.00" noise="67.68" route="routeedge2_0" type="traffic7" waiting="0.00" lane="edge2_1" pos="1897.82" speed="6.16" angle="90.00" x="2297.82" y="-4.80"/>
        <vehicle id="traffic8_0" eclass="HBEFA3/PC_G_EU4" CO2="9101.44" CO="159.71" HC="0.95" NOx="3.98" PMx="0.19" fuel="3.91" electricity="0.00" noise="71.72" route="routeedge2_0" type="traffic8" waiting="0.00" lane="edge2_1" pos="1919.34" speed="10.37" angle="90.00" x="2319.34" y="-4.80"/>
        <vehicle id="traffic9_0" eclass="HBEFA3/PC_G_EU4" CO2="9098.31" CO="159.66" HC="0.95" NOx="3.98" PMx="0.19" fuel="3.91" electricity="0.00" noise="71.72" route="routeedge2_0" type="traffic9" waiting="0.00" lane="edge2_2" pos="420.12" speed="10.37" angle="90.00" x="820.12" y="-1.60"/>
    </timestep>
    <timestep time="6.00">
        <vehicle id="flow_00.0" eclass="HBEFA3/PC_G_EU4" CO2="14779.07" CO="231.00" HC="1.42" NOx="6.34" PMx="0.34" fuel="6.35" electricity="0.00" noise="75.17" route="routeedge0_0" type="traffic" waiting="0.00" lane="edge0_0" pos="104.39" speed="23.80" angle="90.00" x="104.39" y="-8.00"/>
        <vehicle id="rl_0" eclass="HBEFA3/PC_G_EU4" CO2="5453.81" CO="166.33" HC="0.89" NOx="2.44" PMx="0.12" fuel="2.34" electricity="0.00" noise="72.68" route="routeedge2_0" type="rl" waiting="0.00" lane="edge2_1" pos="616.47" speed="3.50" angle="90.00" x="1016.47" y="-4.80"/>
        <vehicle id="traffic0_0" eclass="HBEFA3/PC_G_EU4" CO2="8996.63" CO="144.36" HC="0.87" NOx="3.89" PMx="0.19" fuel="3.87" electricity="0.00" noise="70.83" route="routeedge2_0" type="traffic0" waiting="0.00" lane="edge2_0" pos="903.23" speed="11.96" angle="90.00" x="1303.23" y="-8.00"/>
        <vehicle id="traffic10_0" eclass="HBEFA3/PC_G_EU4" CO2="7534.89" CO="118.59" HC="0.72" NOx="3.22" PMx="0.15" fuel="3.24" electricity="0.00" noise="69.03" route="routeedge2_0" type="traffic10" waiting="0.00" lane="edge2_2" pos="1198.66" speed="11.41" angle="90.00" x="1598.66" y="-1.60"/>
        <vehicle id="traffic11_0" eclass="HBEFA3/PC_G_EU4" CO2="8419.97" CO="135.52" HC="0.82" NOx="3.63" PMx="0.17" fuel="3.62" electricity="0.00" noise="70.18" route="routeedge2_0" type="traffic11" waiting="0.00" lane="edge2_2" pos="1235.49" speed="11.57" angle="90.00" x="1635.49" y="-1.60"/>
        <vehicle id="traffic12_0" eclass="HBEFA3/PC_G_EU4" CO2="10817.49" CO="174.87" HC="1.06" NOx="4.73" PMx="0.23" fuel="4.65" electricity="0.00" noise="72.78" route="routeedge2_0" type="traffic12" waiting="0.00" lane="edge2_2" pos="1271.48" speed="12.91" angle="90.00" x="1671.48" y="-1.60"/>
        <vehicle id="traffic13_0" eclass="HBEFA3/PC_G_EU4" CO2="6608.49" CO="96.56" HC="0.60" NOx="2.77" PMx="0.13" fuel="2.84" electricity="0.00" noise="67.80" route="routeedge2_0" type="traffic13" waiting="0.00" lane="edge2_2" pos="1729.75" speed="11.78" angle="90.00" x="2129.75" y="-1.60"/>
        <vehicle id="traffic14_0" eclass="HBEFA3/PC_G_EU4" CO2="10832.74" CO="175.14" HC="1.06" NOx="4.74" PMx="0.23" fuel="4.66" electricity="0.00" noise="72.79" route="routeedge2_0" type="traffic14" waiting="0.00" lane="edge2_2" pos="1889.04" speed="12.92" angle="90.00" x="2289.04" y="-1.60"/>
        <vehicle id="traffic1_0" eclass="HBEFA3/PC_G_EU4" CO2="10829.71" CO="175.08" HC="1.06" NOx="4.73" PMx="0.23" fuel="4.66" electricity="0.00" noise="72.79" route="routeedge2_0" type="traffic1" waiting="0.00" lane="edge2_0" pos="945.27" speed="12.92" angle="90.00" x="1345.27" y="-8.00"/>
        <vehicle id="traffic2_0" eclass="HBEFA3/PC_G_EU4" CO2="6360.58" CO="91.77" HC="0.57" NOx="2.66" PMx="0.12" fuel="2.73" electricity="0.00" noise="67.49" route="routeedge2_0" type="traffic2" waiting="0.00" lane="edge2_0" pos="1966.18" speed="11.74" angle="90.00" x="2366.18" y="-8.00"/>