<?xml version="1.0" encoding="UTF-8"?>

<!-- generated on 2020. febr. 2., vasárnap, 10:34:40 CET by Eclipse SUMO GUI Version 1.4.0
<configuration xmlns:xsi="http://www.w3.org/2001/XMLSchema-instance" xsi:noNamespaceSchemaLocation="http://sumo.dlr.de/xsd/sumoConfiguration.xsd">

    <input>
        <net-file value="/home/akos/workspace/flow/flow/core/kernel/network/debug/cfg/ring_example_20200202-1034391580636079.322323.net.xml"/>
        <route-files value="/home/akos/workspace/flow/flow/core/kernel/network/debug/cfg/ring_example_20200202-1034391580636079.322323.rou.xml"/>
        <additional-files value="/home/akos/workspace/flow/flow/core/kernel/network/debug/cfg/ring_example_20200202-1034391580636079.322323.add.xml"/>
    </input>

    <output>
        <emission-output value="data/ring_example_20200202-1034391580636079.322323-emission.xml"/>
    </output>

    <time>
        <begin value="0"/>
        <step-length value="0.1"/>
    </time>

    <processing>
        <collision.check-junctions value="true"/>
        <time-to-teleport value="-1"/>
    </processing>

    <report>
        <no-step-log value="true"/>
    </report>

    <traci_server>
        <remote-port value="41275"/>
        <num-clients value="1"/>
    </traci_server>

    <gui_only>
        <gui-settings-file value="/home/akos/workspace/flow/flow/core/kernel/network/debug/cfg/ring_example_20200202-1034391580636079.322323.gui.cfg"/>
        <tracker-interval value="0.1"/>
    </gui_only>

</configuration>
-->

<emission-export xmlns:xsi="http://www.w3.org/2001/XMLSchema-instance" xsi:noNamespaceSchemaLocation="http://sumo.dlr.de/xsd/emission_file.xsd">
    <timestep time="0.00"/>
    <timestep time="0.10">
        <vehicle id="human_0" eclass="HBEFA3/PC_G_EU4" CO2="2624.72" CO="164.78" HC="0.81" NOx="1.20" PMx="0.07" fuel="1.13" electricity="0.00" noise="55.94" route="routebottom_0" type="human" waiting="0.00" lane="bottom_0" pos="0.00" speed="0.00" angle="93.92" x="36.71" y="-4.80"/>
        <vehicle id="human_1" eclass="HBEFA3/PC_G_EU4" CO2="2624.72" CO="164.78" HC="0.81" NOx="1.20" PMx="0.07" fuel="1.13" electricity="0.00" noise="55.94" route="routebottom_0" type="human" waiting="0.00" lane="bottom_1" pos="1.86" speed="0.00" angle="90.89" x="38.57" y="-1.54"/>
        <vehicle id="human_10" eclass="HBEFA3/PC_G_EU4" CO2="2624.72" CO="164.78" HC="0.81" NOx="1.20" PMx="0.07" fuel="1.13" electricity="0.00" noise="55.94" route="routeright_0" type="human" waiting="0.00" lane="right_0" pos="46.06" speed="0.00" angle="291.93" x="49.40" y="75.99"/>
        <vehicle id="human_11" eclass="HBEFA3/PC_G_EU4" CO2="2624.72" CO="164.78" HC="0.81" NOx="1.20" PMx="0.07" fuel="1.13" electricity="0.00" noise="55.94" route="routeright_0" type="human" waiting="0.00" lane="right_1" pos="48.44" speed="0.00" angle="288.10" x="45.99" y="73.64"/>
        <vehicle id="human_12" eclass="HBEFA3/PC_G_EU4" CO2="2624.72" CO="164.78" HC="0.81" NOx="1.20" PMx="0.07" fuel="1.13" electricity="0.00" noise="55.94" route="routetop_0" type="human" waiting="0.00" lane="top_0" pos="10.30" speed="0.00" angle="257.77" x="25.06" y="76.37"/>
        <vehicle id="human_13" eclass="HBEFA3/PC_G_EU4" CO2="2624.72" CO="164.78" HC="0.81" NOx="1.20" PMx="0.07" fuel="1.13" electricity="0.00" noise="55.94" route="routetop_0" type="human" waiting="0.00" lane="top_1" pos="11.20" speed="0.00" angle="256.31" x="25.08" y="73.03"/>
        <vehicle id="human_14" eclass="HBEFA3/PC_G_EU4" CO2="2624.72" CO="164.78" HC="0.81" NOx="1.20" PMx="0.07" fuel="1.13" electricity="0.00" noise="55.94" route="routetop_0" type="human" waiting="0.00" lane="top_0" pos="31.54" speed="0.00" angle="224.45" x="5.20" y="63.58"/>
        <vehicle id="human_15" eclass="HBEFA3/PC_G_EU4" CO2="2624.72" CO="164.78" HC="0.81" NOx="1.20" PMx="0.07" fuel="1.13" electricity="0.00" noise="55.94" route="routetop_0" type="human" waiting="0.00" lane="top_1" pos="31.71" speed="0.00" angle="224.20" x="7.51" y="61.35"/>
        <vehicle id="human_16" eclass="HBEFA3/PC_G_EU4" CO2="2624.72" CO="164.78" HC="0.81" NOx="1.20" PMx="0.07" fuel="1.13" electricity="0.00" noise="55.94" route="routetop_0" type="human" waiting="0.00" lane="top_0" pos="52.46" speed="0.00" angle="191.86" x="-4.38" y="42.37"/>
        <vehicle id="human_17" eclass="HBEFA3/PC_G_EU4" CO2="2624.72" CO="164.78" HC="0.81" NOx="1.20" PMx="0.07" fuel="1.13" electricity="0.00" noise="55.94" route="routetop_0" type="human" waiting="0.00" lane="top_1" pos="50.92" speed="0.00" angle="194.24" x="-0.97" y="43.46"/>
        <vehicle id="human_18" eclass="HBEFA3/PC_G_EU4" CO2="2624.72" CO="164.78" HC="0.81" NOx="1.20" PMx="0.07" fuel="1.13" electricity="0.00" noise="55.94" route="routeleft_0" type="human" waiting="0.00" lane="left_0" pos="12.82" speed="0.00" angle="163.76" x="-2.26" y="22.35"/>
        <vehicle id="human_19" eclass="HBEFA3/PC_G_EU4" CO2="2624.72" CO="164.78" HC="0.81" NOx="1.20" PMx="0.07" fuel="1.13" electricity="0.00" noise="55.94" route="routeleft_0" type="human" waiting="0.00" lane="left_1" pos="16.71" speed="0.00" angle="157.66" x="2.33" y="19.77"/>
        <vehicle id="human_2" eclass="HBEFA3/PC_G_EU4" CO2="2624.72" CO="164.78" HC="0.81" NOx="1.20" PMx="0.07" fuel="1.13" electricity="0.00" noise="55.94" route="routebottom_0" type="human" waiting="0.00" lane="bottom_0" pos="21.51" speed="0.00" angle="60.22" x="59.58" y="2.17"/>
        <vehicle id="human_20" eclass="HBEFA3/PC_G_EU4" CO2="2624.72" CO="164.78" HC="0.81" NOx="1.20" PMx="0.07" fuel="1.13" electricity="0.00" noise="55.94" route="routeleft_0" type="human" waiting="0.00" lane="left_0" pos="35.92" speed="0.00" angle="127.65" x="13.57" y="2.21"/>
        <vehicle id="human_21" eclass="HBEFA3/PC_G_EU4" CO2="2624.72" CO="164.78" HC="0.81" NOx="1.20" PMx="0.07" fuel="1.13" electricity="0.00" noise="55.94" route="routeleft_0" type="human" waiting="0.00" lane="left_1" pos="37.54" speed="0.00" angle="125.13" x="16.79" y="3.96"/>
        <vehicle id="human_3" eclass="HBEFA3/PC_G_EU4" CO2="2624.72" CO="164.78" HC="0.81" NOx="1.20" PMx="0.07" fuel="1.13" electricity="0.00" noise="55.94" route="routebottom_0" type="human" waiting="0.00" lane="bottom_1" pos="21.99" speed="0.00" angle="59.61" x="58.21" y="5.10"/>
        <vehicle id="human_4" eclass="HBEFA3/PC_G_EU4" CO2="2624.72" CO="164.78" HC="0.81" NOx="1.20" PMx="0.07" fuel="1.13" electricity="0.00" noise="55.94" route="routebottom_0" type="human" waiting="0.00" lane="bottom_0" pos="41.88" speed="0.00" angle="28.34" x="74.27" y="19.43"/>
        <vehicle id="human_5" eclass="HBEFA3/PC_G_EU4" CO2="2624.72" CO="164.78" HC="0.81" NOx="1.20" PMx="0.07" fuel="1.13" electricity="0.00" noise="55.94" route="routebottom_0" type="human" waiting="0.00" lane="bottom_1" pos="43.33" speed="0.00" angle="26.07" x="71.98" y="22.17"/>
        <vehicle id="human_6" eclass="HBEFA3/PC_G_EU4" CO2="2624.72" CO="164.78" HC="0.81" NOx="1.20" PMx="0.07" fuel="1.13" electricity="0.00" noise="55.94" route="routeright_0" type="human" waiting="0.00" lane="right_0" pos="5.45" speed="0.00" angle="355.20" x="77.54" y="42.83"/>
        <vehicle id="human_7" eclass="HBEFA3/PC_G_EU4" CO2="2624.72" CO="164.78" HC="0.81" NOx="1.20" PMx="0.07" fuel="1.13" electricity="0.00" noise="55.94" route="routeright_0" type="human" waiting="0.00" lane="right_1" pos="4.14" speed="0.00" angle="357.33" x="74.57" y="40.94"/>
        <vehicle id="human_8" eclass="HBEFA3/PC_G_EU4" CO2="2624.72" CO="164.78" HC="0.81" NOx="1.20" PMx="0.07" fuel="1.13" electricity="0.00" noise="55.94" route="routeright_0" type="human" waiting="0.00" lane="right_0" pos="24.47" speed="0.00" angle="325.49" x="69.08" y="62.28"/>
        <vehicle id="human_9" eclass="HBEFA3/PC_G_EU4" CO2="2624.72" CO="164.78" HC="0.81" NOx="1.20" PMx="0.07" fuel="1.13" electricity="0.00" noise="55.94" route="routeright_0" type="human" waiting="0.00" lane="right_1" pos="25.04" speed="0.00" angle="324.77" x="66.22" y="60.75"/>
    </timestep>
    <timestep time="0.20">
        <vehicle id="human_0" eclass="HBEFA3/PC_G_EU4" CO2="2636.95" CO="163.31" HC="0.81" NOx="1.21" PMx="0.07" fuel="1.13" electricity="0.00" noise="60.27" route="routebottom_0" type="human" waiting="0.10" lane="bottom_0" pos="0.01" speed="0.10" angle="93.90" x="36.72" y="-4.80"/>
        <vehicle id="human_1" eclass="HBEFA3/PC_G_EU4" CO2="2636.84" CO="163.31" HC="0.81" NOx="1.21" PMx="0.07" fuel="1.13" electricity="0.00" noise="60.26" route="routebottom_0" type="human" waiting="0.10" lane="bottom_1" pos="1.87" speed="0.10" angle="90.87" x="38.58" y="-1.54"/>
        <vehicle id="human_10" eclass="HBEFA3/PC_G_EU4" CO2="2636.97" CO="163.31" HC="0.81" NOx="1.21" PMx="0.07" fuel="1.13" electricity="0.00" noise="60.27" route="routeright_0" type="human" waiting="0.10" lane="right_0" pos="46.07" speed="0.10" angle="291.91" x="49.39" y="75.99"/>
        <vehicle id="human_11" eclass="HBEFA3/PC_G_EU4" CO2="2636.87" CO="163.31" HC="0.81" NOx="1.21" PMx="0.07" fuel="1.13" electricity="0.00" noise="60.26" route="routeright_0" type="human" waiting="0.10" lane="right_1" pos="48.45" speed="0.10" angle="288.08" x="45.98" y="73.64"/>
        <vehicle id="human_12" eclass="HBEFA3/PC_G_EU4" CO2="2636.93" CO="163.31" HC="0.81" NOx="1.21" PMx="0.07" fuel="1.13" electricity="0.00" noise="60.27" route="routetop_0" type="human" waiting="0.10" lane="top_0" pos="10.31" speed="0.10" angle="257.75" x="25.05" y="76.37"/>
        <vehicle id="human_13" eclass="HBEFA3/PC_G_EU4" CO2="2636.87" CO="163.31" HC="0.81" NOx="1.21" PMx="0.07" fuel="1.13" electricity="0.00" noise="60.26" route="routetop_0" type="human" waiting="0.10" lane="top_1" pos="11.21" speed="0.10" angle="256.30" x="25.07" y="73.02"/>
        <vehicle id="human_14" eclass="HBEFA3/PC_G_EU4" CO2="2636.91" CO="163.31" HC="0.81" NOx="1.21" PMx="0.07" fuel="1.13" electricity="0.00" noise="60.26" route="routetop_0" type="human" waiting="0.10" lane="top_0" pos="31.55" speed="0.10" angle="224.43" x="5.20" y="63.57"/>
        <vehicle id="human_15" eclass="HBEFA3/PC_G_EU4" CO2="2636.75" CO="163.31" HC="0.81" NOx="1.21" PMx="0.07" fuel="1.13" electricity="0.00" noise="60.25" route="routetop_0" type="human" waiting="0.10" lane="top_1" pos="31.72" speed="0.10" angle="224.18" x="7.50" y="61.34"/>
        <vehicle id="human_16" eclass="HBEFA3/PC_G_EU4" CO2="2636.61" CO="163.32" HC="0.81" NOx="1.21" PMx="0.07" fuel="1.13" electricity="0.00" noise="60.23" route="routetop_0" type="human" waiting="0.10" lane="top_0" pos="52.47" speed="0.10" angle="191.84" x="-4.38" y="42.36"/>
        <vehicle id="human_17" eclass="HBEFA3/PC_G_EU4" CO2="2637.06" CO="163.31" HC="0.81" NOx="1.21" PMx="0.07" fuel="1.13" electricity="0.00" noise="60.28" route="routetop_0" type="human" waiting="0.10" lane="top_1" pos="50.93" speed="0.10" angle="194.23" x="-0.97" y="43.45"/>
        <vehicle id="human_18" eclass="HBEFA3/PC_G_EU4" CO2="2637.04" CO="163.31" HC="0.81" NOx="1.21" PMx="0.07" fuel="1.13" electricity="0.00" noise="60.28" route="routeleft_0" type="human" waiting="0.10" lane="left_0" pos="12.83" speed="0.10" angle="163.75" x="-2.25" y="22.34"/>
        <vehicle id="human_19" eclass="HBEFA3/PC_G_EU4" CO2="2636.90" CO="163.31" HC="0.81" NOx="1.21" PMx="0.07" fuel="1.13" electricity="0.00" noise="60.26" route="routeleft_0" type="human" waiting="0.10" lane="left_1" pos="16.72" speed="0.10" angle="157.64" x="2.33" y="19.76"/>
        <vehicle id="human_2" eclass="HBEFA3/PC_G_EU4" CO2="2636.86" CO="163.31" HC="0.81" NOx="1.21" PMx="0.07" fuel="1.13" electricity="0.00" noise="60.26" route="routebottom_0" type="human" waiting="0.10" lane="bottom_0" pos="21.52" speed="0.10" angle="60.20" x="59.59" y="2.18"/>
        <vehicle id="human_20" eclass="HBEFA3/PC_G_EU4" CO2="2636.96" CO="163.31" HC="0.81" NOx="1.21" PMx="0.07" fuel="1.13" electricity="0.00" noise="60.27" route="routeleft_0" type="human" waiting="0.10" lane="left_0" pos="35.93" speed="0.10" angle="127.63" x="13.58" y="2.21"/>
        <vehicle id="human_21" eclass="HBEFA3/PC_G_EU4" CO2="2636.98" CO="163.31" HC="0.81" NOx="1.21" PMx="0.07" fuel="1.13" electricity="0.00" noise="60.27" route="routeleft_0" type="human" waiting="0.10" lane="left_1" pos="37.55" speed="0.10" angle="125.12" x="16.80" y="3.95"/>
        <vehicle id="human_3" eclass="HBEFA3/PC_G_EU4" CO2="2636.94" CO="163.31" HC="0.81" NOx="1.21" PMx="0.07" fuel="1.13" electricity="0.00" noise="60.27" route="routebottom_0" type="human" waiting="0.10" lane="bottom_1" pos="22.00" speed="0.10" angle="59.60" x="58.22" y="5.10"/>
        <vehicle id="human_4" eclass="HBEFA3/PC_G_EU4" CO2="2636.93" CO="163.31" HC="0.81" NOx="1.21" PMx="0.07" fuel="1.13" electricity="0.00" noise="60.27" route="routebottom_0" type="human" waiting="0.10" lane="bottom_0" pos="41.89" speed="0.10" angle="28.33" x="74.28" y="19.44"/>
        <vehicle id="human_5" eclass="HBEFA3/PC_G_EU4" CO2="2636.67" CO="163.32" HC="0.81" NOx="1.21" PMx="0.07" fuel="1.13" electricity="0.00" noise="60.24" route="routebottom_0" type="human" waiting="0.10" lane="bottom_1" pos="43.33" speed="0.10" angle="26.05" x="71.98" y="22.18"/>
        <vehicle id="human_6" eclass="HBEFA3/PC_G_EU4" CO2="2636.74" CO="163.31" HC="0.81" NOx="1.21" PMx="0.07" fuel="1.13" electricity="0.00" noise="60.24" route="routeright_0" type="human" waiting="0.10" lane="right_0" pos="5.46" speed="0.10" angle="355.19" x="77.54" y="42.84"/>
        <vehicle id="human_7" eclass="HBEFA3/PC_G_EU4" CO2="2636.90" CO="163.31" HC="0.81" NOx="1.21" PMx="0.07" fuel="1.13" electricity="0.00" noise="60.26" route="routeright_0" type="human" waiting="0.10" lane="right_1" pos="4.15" speed="0.10" angle="357.32" x="74.57" y="40.95"/>
        <vehicle id="human_8" eclass="HBEFA3/PC_G_EU4" CO2="2636.95" CO="163.31" HC="0.81" NOx="1.21" PMx="0.07" fuel="1.13" electricity="0.00" noise="60.27" route="routeright_0" type="human" waiting="0.10" lane="right_0" pos="24.48" speed="0.10" angle="325.48" x="69.07" y="62.29"/>
        <vehicle id="human_9" eclass="HBEFA3/PC_G_EU4" CO2="2637.06" CO="163.31" HC="0.81" NOx="1.21" PMx="0.07" fuel="1.13" electricity="0.00" noise="60.28" route="routeright_0" type="human" waiting="0.10" lane="right_1" pos="25.05" speed="0.10" angle="324.76" x="66.21" y="60.76"/>
    </timestep>
    <timestep time="0.30">
        <vehicle id="human_0" eclass="HBEFA3/PC_G_EU4" CO2="2649.23" CO="161.85" HC="0.80" NOx="1.21" PMx="0.07" fuel="1.14" electricity="0.00" noise="60.30" route="routebottom_0" type="human" waiting="0.00" lane="bottom_0" pos="0.03" speed="0.19" angle="93.87" x="36.74" y="-4.80"/>
        <vehicle id="human_1" eclass="HBEFA3/PC_G_EU4" CO2="2649.00" CO="161.86" HC="0.80" NOx="1.21" PMx="0.07" fuel="1.14" electricity="0.00" noise="60.29" route="routebottom_0" type="human" waiting="0.00" lane="bottom_1" pos="1.88" speed="0.19" angle="90.83" x="38.60" y="-1.54"/>
        <vehicle id="human_10" eclass="HBEFA3/PC_G_EU4" CO2="2649.28" CO="161.85" HC="0.80" NOx="1.21" PMx="0.07" fuel="1.14" electricity="0.00" noise="60.30" route="routeright_0" type="human" waiting="0.00" lane="right_0" pos="46.08" speed="0.20" angle="291.88" x="49.37" y="76.00"/>
        <vehicle id="human_11" eclass="HBEFA3/PC_G_EU4" CO2="2649.05" CO="161.86" HC="0.80" NOx="1.21" PMx="0.07" fuel="1.14" electricity="0.00" noise="60.29" route="routeright_0" type="human" waiting="0.00" lane="right_1" pos="48.47" speed="0.19" angle="288.06" x="45.96" y="73.65"/>
        <vehicle id="human_12" eclass="HBEFA3/PC_G_EU4" CO2="2649.19" CO="161.85" HC="0.80" NOx="1.21" PMx="0.07" fuel="1.14" electricity="0.00" noise="60.30" route="routetop_0" type="human" waiting="0.00" lane="top_0" pos="10.32" speed="0.19" angle="257.72" x="25.03" y="76.36"/>
        <vehicle id="human_13" eclass="HBEFA3/PC_G_EU4" CO2="2649.07" CO="161.86" HC="0.80" NOx="1.21" PMx="0.07" fuel="1.14" electricity="0.00" noise="60.29" route="routetop_0" type="human" waiting="0.00" lane="top_1" pos="11.23" speed="0.19" angle="256.27" x="25.06" y="73.02"/>
        <vehicle id="human_14" eclass="HBEFA3/PC_G_EU4" CO2="2649.14" CO="161.85" HC="0.80" NOx="1.21" PMx="0.07" fuel="1.14" electricity="0.00" noise="60.29" route="routetop_0" type="human" waiting="0.00" lane="top_0" pos="31.57" speed="0.19" angle="224.40" x="5.18" y="63.55"/>
        <vehicle id="human_15" eclass="HBEFA3/PC_G_EU4" CO2="2648.81" CO="161.86" HC="0.80" NOx="1.21" PMx="0.07" fuel="1.14" electricity="0.00" noise="60.27" route="routetop_0" type="human" waiting="0.00" lane="top_1" pos="31.74" speed="0.19" angle="224.15" x="7.49" y="61.33"/>
        <vehicle id="human_16" eclass="HBEFA3/PC_G_EU4" CO2="2648.51" CO="161.87" HC="0.80" NOx="1.21" PMx="0.07" fuel="1.14" electricity="0.00" noise="60.26" route="routetop_0" type="human" waiting="0.00" lane="top_0" pos="52.49" speed="0.19" angle="191.82" x="-4.39" y="42.34"/>
        <vehicle id="human_17" eclass="HBEFA3/PC_G_EU4" CO2="2649.47" CO="161.85" HC="0.80" NOx="1.21" PMx="0.07" fuel="1.14" electricity="0.00" noise="60.31" route="routetop_0" type="human" waiting="0.00" lane="top_1" pos="50.95" speed="0.20" angle="194.20" x="-0.98" y="43.43"/>
        <vehicle id="human_18" eclass="HBEFA3/PC_G_EU4" CO2="2649.43" CO="161.85" HC="0.80" NOx="1.21" PMx="0.07" fuel="1.14" electricity="0.00" noise="60.31" route="routeleft_0" type="human" waiting="0.00" lane="left_0" pos="12.85" speed="0.20" angle="163.72" x="-2.24" y="22.32"/>
        <vehicle id="human_19" eclass="HBEFA3/PC_G_EU4" CO2="2649.13" CO="161.85" HC="0.80" NOx="1.21" PMx="0.07" fuel="1.14" electricity="0.00" noise="60.29" route="routeleft_0" type="human" waiting="0.00" lane="left_1" pos="16.73" speed="0.19" angle="157.60" x="2.34" y="19.74"/>
        <vehicle id="human_2" eclass="HBEFA3/PC_G_EU4" CO2="2649.05" CO="161.86" HC="0.80" NOx="1.21" PMx="0.07" fuel="1.14" electricity="0.00" noise="60.29" route="routebottom_0" type="human" waiting="0.00" lane="bottom_0" pos="21.54" speed="0.19" angle="60.18" x="59.61" y="2.19"/>
        <vehicle id="human_20" eclass="HBEFA3/PC_G_EU4" CO2="2649.26" CO="161.85" HC="0.80" NOx="1.21" PMx="0.07" fuel="1.14" electricity="0.00" noise="60.30" route="routeleft_0" type="human" waiting="0.00" lane="left_0" pos="35.95" speed="0.20" angle="127.60" x="13.60" y="2.20"/>
        <vehicle id="human_21" eclass="HBEFA3/PC_G_EU4" CO2="2649.29" CO="161.85" HC="0.80" NOx="1.21" PMx="0.07" fuel="1.14" electricity="0.00" noise="60.30" route="routeleft_0" type="human" waiting="0.00" lane="left_1" pos="37.57" speed="0.20" angle="125.09" x="16.82" y="3.94"/>
        <vehicle id="human_3" eclass="HBEFA3/PC_G_EU4" CO2="2649.20" CO="161.85" HC="0.80" NOx="1.21" PMx="0.07" fuel="1.14" electricity="0.00" noise="60.30" route="routebottom_0" type="human" waiting="0.00" lane="bottom_1" pos="22.02" speed="0.19" angle="59.57" x="58.24" y="5.11"/>
        <vehicle id="human_4" eclass="HBEFA3/PC_G_EU4" CO2="2649.19" CO="161.85" HC="0.80" NOx="1.21" PMx="0.07" fuel="1.14" electricity="0.00" noise="60.30" route="routebottom_0" type="human" waiting="0.00" lane="bottom_0" pos="41.91" speed="0.19" angle="28.30" x="74.29" y="19.46"/>
        <vehicle id="human_5" eclass="HBEFA3/PC_G_EU4" CO2="2648.63" CO="161.87" HC="0.80" NOx="1.21" PMx="0.07" fuel="1.14" electricity="0.00" noise="60.26" route="routebottom_0" type="human" waiting="0.00" lane="bottom_1" pos="43.35" speed="0.19" angle="26.02" x="71.99" y="22.20"/>
        <vehicle id="human_6" eclass="HBEFA3/PC_G_EU4" CO2="2648.77" CO="161.86" HC="0.80" NOx="1.21" PMx="0.07" fuel="1.14" electricity="0.00" noise="60.27" route="routeright_0" type="human" waiting="0.00" lane="right_0" pos="5.48" speed="0.19" angle="355.16" x="77.53" y="42.86"/>
        <vehicle id="human_7" eclass="HBEFA3/PC_G_EU4" CO2="2649.14" CO="161.85" HC="0.80" NOx="1.21" PMx="0.07" fuel="1.14" electricity="0.00" noise="60.29" route="routeright_0" type="human" waiting="0.00" lane="right_1" pos="4.17" speed="0.19" angle="357.29" x="74.56" y="40.97"/>
        <vehicle id="human_8" eclass="HBEFA3/PC_G_EU4" CO2="2649.24" CO="161.85" HC="0.80" NOx="1.21" PMx="0.07" fuel="1.14" electricity="0.00" noise="60.30" route="routeright_0" type="human" waiting="0.00" lane="right_0" pos="24.50" speed="0.19" angle="325.45" x="69.06" y="62.31"/>
        <vehicle id="human_9" eclass="HBEFA3/PC_G_EU4" CO2="2649.46" CO="161.85" HC="0.80" NOx="1.21" PMx="0.07" fuel="1.14" electricity="0.00" noise="60.31" route="routeright_0" type="human" waiting="0.00" lane="right_1" pos="25.07" speed="0.20" angle="324.73" x="66.20" y="60.77"/>
    </timestep>
    <timestep time="0.40">
        <vehicle id="human_0" eclass="HBEFA3/PC_G_EU4" CO2="2661.56" CO="160.41" HC="0.79" NOx="1.21" PMx="0.07" fuel="1.14" electricity="0.00" noise="60.33" route="routebottom_0" type="human" waiting="0.00" lane="bottom_0" pos="0.06" speed="0.29" angle="93.81" x="36.78" y="-4.80"/>
        <vehicle id="human_1" eclass="HBEFA3/PC_G_EU4" CO2="2661.19" CO="160.41" HC="0.79" NOx="1.21" PMx="0.07" fuel="1.14" electricity="0.00" noise="60.31" route="routebottom_0" type="human" waiting="0.00" lane="bottom_1" pos="1.91" speed="0.29" angle="90.78" x="38.63" y="-1.54"/>
        <vehicle id="human_10" eclass="HBEFA3/PC_G_EU4" CO2="2661.65" CO="160.40" HC="0.79" NOx="1.21" PMx="0.07" fuel="1.14" electricity="0.00" noise="60.33" route="routeright_0" type="human" waiting="0.00" lane="right_0" pos="46.11" speed="0.29" angle="291.82" x="49.34" y="76.01"/>
        <vehicle id="human_11" eclass="HBEFA3/PC_G_EU4" CO2="2661.28" CO="160.41" HC="0.79" NOx="1.21" PMx="0.07" fuel="1.14" electricity="0.00" noise="60.32" route="routeright_0" type="human" waiting="0.00" lane="right_1" pos="48.50" speed="0.29" angle="288.01" x="45.93" y="73.65"/>
        <vehicle id="human_12" eclass="HBEFA3/PC_G_EU4" CO2="2661.50" CO="160.41" HC="0.79" NOx="1.21" PMx="0.07" fuel="1.14" electricity="0.00" noise="60.33" route="routetop_0" type="human" waiting="0.00" lane="top_0" pos="10.35" speed="0.29" angle="257.66" x="24.99" y="76.35"/>
        <vehicle id="human_13" eclass="HBEFA3/PC_G_EU4" CO2="2661.30" CO="160.41" HC="0.79" NOx="1.21" PMx="0.07" fuel="1.14" electricity="0.00" noise="60.32" route="routetop_0" type="human" waiting="0.00" lane="top_1" pos="11.26" speed="0.29" angle="256.23" x="25.03" y="73.01"/>
        <vehicle id="human_14" eclass="HBEFA3/PC_G_EU4" CO2="2661.42" CO="160.41" HC="0.79" NOx="1.21" PMx="0.07" fuel="1.14" electricity="0.00" noise="60.32" route="routetop_0" type="human" waiting="0.00" lane="top_0" pos="31.60" speed="0.29" angle="224.36" x="5.16" y="63.53"/>
        <vehicle id="human_15" eclass="HBEFA3/PC_G_EU4" CO2="2660.89" CO="160.42" HC="0.79" NOx="1.21" PMx="0.07" fuel="1.14" electricity="0.00" noise="60.30" route="routetop_0" type="human" waiting="0.00" lane="top_1" pos="31.77" speed="0.29" angle="224.11" x="7.47" y="61.30"/>
        <vehicle id="human_16" eclass="HBEFA3/PC_G_EU4" CO2="2660.39" CO="160.43" HC="0.79" NOx="1.21" PMx="0.07" fuel="1.14" electricity="0.00" noise="60.28" route="routetop_0" type="human" waiting="0.00" lane="top_0" pos="52.52" speed="0.29" angle="191.78" x="-4.39" y="42.31"/>
        <vehicle id="human_17" eclass="HBEFA3/PC_G_EU4" CO2="2661.95" CO="160.40" HC="0.79" NOx="1.21" PMx="0.07" fuel="1.14" electricity="0.00" noise="60.34" route="routetop_0" type="human" waiting="0.00" lane="top_1" pos="50.98" speed="0.29" angle="194.15" x="-0.98" y="43.40"/>
        <vehicle id="human_18" eclass="HBEFA3/PC_G_EU4" CO2="2661.89" CO="160.40" HC="0.79" NOx="1.21" PMx="0.07" fuel="1.14" electricity="0.00" noise="60.34" route="routeleft_0" type="human" waiting="0.00" lane="left_0" pos="12.88" speed="0.29" angle="163.68" x="-2.23" y="22.29"/>
        <vehicle id="human_19" eclass="HBEFA3/PC_G_EU4" CO2="2661.39" CO="160.41" HC="0.79" NOx="1.21" PMx="0.07" fuel="1.14" electricity="0.00" noise="60.32" route="routeleft_0" type="human" waiting="0.00" lane="left_1" pos="16.76" speed="0.29" angle="157.55" x="2.36" y="19.71"/>
        <vehicle id="human_2" eclass="HBEFA3/PC_G_EU4" CO2="2661.26" CO="160.41" HC="0.79" NOx="1.21" PMx="0.07" fuel="1.14" electricity="0.00" noise="60.32" route="routebottom_0" type="human" waiting="0.00" lane="bottom_0" pos="21.57" speed="0.29" angle="60.14" x="59.64" y="2.21"/>
        <vehicle id="human_20" eclass="HBEFA3/PC_G_EU4" CO2="2661.61" CO="160.41" HC="0.79" NOx="1.21" PMx="0.07" fuel="1.14" electricity="0.00" noise="60.33" route="routeleft_0" type="human" waiting="0.00" lane="left_0" pos="35.98" speed="0.29" angle="127.54" x="13.63" y="2.18"/>
        <vehicle id="human_21" eclass="HBEFA3/PC_G_EU4" CO2="2661.67" CO="160.40" HC="0.79" NOx="1.21" PMx="0.07" fuel="1.14" electricity="0.00" noise="60.33" route="routeleft_0" type="human" waiting="0.00" lane="left_1" pos="37.60" speed="0.29" angle="125.05" x="16.84" y="3.93"/>
        <vehicle id="human_3" eclass="HBEFA3/PC_G_EU4" CO2="2661.52" CO="160.41" HC="0.79" NOx="1.21" PMx="0.07" fuel="1.14" electricity="0.00" noise="60.33" route="routebottom_0" type="human" waiting="0.00" lane="bottom_1" pos="22.05" speed="0.29" angle="59.54" x="58.26" y="5.13"/>
        <vehicle id="human_4" eclass="HBEFA3/PC_G_EU4" CO2="2661.49" CO="160.41" HC="0.79" NOx="1.21" PMx="0.07" fuel="1.14" electricity="0.00" noise="60.33" route="routebottom_0" type="human" waiting="0.00" lane="bottom_0" pos="41.94" speed="0.29" angle="28.26" x="74.30" y="19.49"/>
        <vehicle id="human_5" eclass="HBEFA3/PC_G_EU4" CO2="2660.59" CO="160.43" HC="0.79" NOx="1.21" PMx="0.07" fuel="1.14" electricity="0.00" noise="60.29" route="routebottom_0" type="human" waiting="0.00" lane="bottom_1" pos="43.38" speed="0.29" angle="25.98" x="72.00" y="22.23"/>
        <vehicle id="human_6" eclass="HBEFA3/PC_G_EU4" CO2="2660.82" CO="160.42" HC="0.79" NOx="1.21" PMx="0.07" fuel="1.14" electricity="0.00" noise="60.30" route="routeright_0" type="human" waiting="0.00" lane="right_0" pos="5.51" speed="0.29" angle="355.12" x="77.53" y="42.89"/>
        <vehicle id="human_7" eclass="HBEFA3/PC_G_EU4" CO2="2661.41" CO="160.41" HC="0.79" NOx="1.21" PMx="0.07" fuel="1.14" electricity="0.00" noise="60.32" route="routeright_0" type="human" waiting="0.00" lane="right_1" pos="4.19" speed="0.29" angle="357.25" x="74.56" y="41.00"/>
        <vehicle id="human_8" eclass="HBEFA3/PC_G_EU4" CO2="2661.58" CO="160.41" HC="0.79" NOx="1.21" PMx="0.07" fuel="1.14" electricity="0.00" noise="60.33" route="routeright_0" type="human" waiting="0.00" lane="right_0" pos="24.53" speed="0.29" angle="325.41" x="69.04" y="62.33"/>
        <vehicle id="human_9" eclass="HBEFA3/PC_G_EU4" CO2="2661.94" CO="160.40" HC="0.79" NOx="1.21" PMx="0.07" fuel="1.14" electricity="0.00" noise="60.34" route="routeright_0" type="human" waiting="0.00" lane="right_1" pos="25.10" speed="0.29" angle="324.67" x="66.18" y="60.80"/>
    </timestep>
    <timestep time="0.50">
        <vehicle id="human_0" eclass="HBEFA3/PC_G_EU4" CO2="2673.94" CO="158.97" HC="0.79" NOx="1.22" PMx="0.07" fuel="1.15" electricity="0.00" noise="60.36" route="routebottom_0" type="human" waiting="0.00" lane="bottom_0" pos="0.10" speed="0.39" angle="93.74" x="36.82" y="-4.80"/>
        <vehicle id="human_1" eclass="HBEFA3/PC_G_EU4" CO2="2673.41" CO="158.98" HC="0.79" NOx="1.22" PMx="0.07" fuel="1.15" electricity="0.00" noise="60.34" route="routebottom_0" type="human" waiting="0.00" lane="bottom_1" pos="1.95" speed="0.39" angle="90.72" x="38.67" y="-1.54"/>
        <vehicle id="human_10" eclass="HBEFA3/PC_G_EU4" CO2="2674.06" CO="158.97" HC="0.79" NOx="1.22" PMx="0.07" fuel="1.15" electricity="0.00" noise="60.36" route="routeright_0" type="human" waiting="0.00" lane="right_0" pos="46.15" speed="0.39" angle="291.75" x="49.30" y="76.02"/>
        <vehicle id="human_11" eclass="HBEFA3/PC_G_EU4" CO2="2673.53" CO="158.98" HC="0.79" NOx="1.22" PMx="0.07" fuel="1.15" electricity="0.00" noise="60.35" route="routeright_0" type="human" waiting="0.00" lane="right_1" pos="48.53" speed="0.39" angle="287.96" x="45.89" y="73.67"/>
        <vehicle id="human_12" eclass="HBEFA3/PC_G_EU4" CO2="2673.85" CO="158.97" HC="0.79" NOx="1.22" PMx="0.07" fuel="1.15" electricity="0.00" noise="60.36" route="routetop_0" type="human" waiting="0.00" lane="top_0" pos="10.39" speed="0.39" angle="257.59" x="24.95" y="76.34"/>
        <vehicle id="human_13" eclass="HBEFA3/PC_G_EU4" CO2="2673.57" CO="158.98" HC="0.79" NOx="1.22" PMx="0.07" fuel="1.15" electricity="0.00" noise="60.35" route="routetop_0" type="human" waiting="0.00" lane="top_1" pos="11.30" speed="0.39" angle="256.17" x="24.99" y="73.00"/>
        <vehicle id="human_14" eclass="HBEFA3/PC_G_EU4" CO2="2673.73" CO="158.98" HC="0.79" NOx="1.22" PMx="0.07" fuel="1.15" electricity="0.00" noise="60.35" route="routetop_0" type="human" waiting="0.00" lane="top_0" pos="31.63" speed="0.39" angle="224.30" x="5.13" y="63.49"/>
        <vehicle id="human_15" eclass="HBEFA3/PC_G_EU4" CO2="2672.97" CO="158.99" HC="0.79" NOx="1.22" PMx="0.07" fuel="1.15" electricity="0.00" noise="60.33" route="routetop_0" type="human" waiting="0.00" lane="top_1" pos="31.81" speed="0.39" angle="224.05" x="7.44" y="61.27"/>
        <vehicle id="human_16" eclass="HBEFA3/PC_G_EU4" CO2="2672.26" CO="159.01" HC="0.79" NOx="1.22" PMx="0.07" fuel="1.15" electricity="0.00" noise="60.31" route="routetop_0" type="human" waiting="0.00" lane="top_0" pos="52.56" speed="0.39" angle="191.72" x="-4.40" y="42.27"/>
        <vehicle id="human_17" eclass="HBEFA3/PC_G_EU4" CO2="2674.50" CO="158.96" HC="0.79" NOx="1.22" PMx="0.07" fuel="1.15" electricity="0.00" noise="60.38" route="routetop_0" type="human" waiting="0.00" lane="top_1" pos="51.02" speed="0.39" angle="194.10" x="-0.99" y="43.36"/>
        <vehicle id="human_18" eclass="HBEFA3/PC_G_EU4" CO2="2674.41" CO="158.96" HC="0.79" NOx="1.22" PMx="0.07" fuel="1.15" electricity="0.00" noise="60.37" route="routeleft_0" type="human" waiting="0.00" lane="left_0" pos="12.92" speed="0.39" angle="163.63" x="-2.22" y="22.25"/>